V -t * -v 1.0a5 -a 0
A -t * -n 1 -p 0 -o 0x7fffffff -c 30 -a 1
A -t * -h 1 -m 1073741823 -s 0
c -t * -i 1 -n Blue
c -t * -i 2 -n Red
n -t * -a 4 -s 4 -S UP -v circle -c black -i black
n -t * -a 0 -s 0 -S UP -v circle -c black -i black
n -t * -a 1 -s 1 -S UP -v circle -c black -i black
n -t * -a 2 -s 2 -S UP -v circle -c black -i black
n -t * -a 3 -s 3 -S UP -v circle -c black -i black
l -t * -s 0 -d 4 -S UP -r 1000000 -D 0.01 -c black -o right-down
l -t * -s 1 -d 4 -S UP -r 1000000 -D 0.01 -c black -o left-down
l -t * -s 4 -d 2 -S UP -r 1000000 -D 0.01 -c black -o left-down
l -t * -s 4 -d 3 -S UP -r 1000000 -D 0.01 -c black -o right-down
+ -t 1 -s 0 -d 4 -p tcp -e 40 -c 2 -i 0 -a 2 -x {0.0 3.0 0 ------- null}
- -t 1 -s 0 -d 4 -p tcp -e 40 -c 2 -i 0 -a 2 -x {0.0 3.0 0 ------- null}
h -t 1 -s 0 -d 4 -p tcp -e 40 -c 2 -i 0 -a 2 -x {0.0 3.0 -1 ------- null}
+ -t 1 -s 1 -d 4 -p cbr -e 1000 -c 1 -i 1 -a 1 -x {1.0 2.0 0 ------- null}
- -t 1 -s 1 -d 4 -p cbr -e 1000 -c 1 -i 1 -a 1 -x {1.0 2.0 0 ------- null}
h -t 1 -s 1 -d 4 -p cbr -e 1000 -c 1 -i 1 -a 1 -x {1.0 2.0 -1 ------- null}
+ -t 1.008 -s 1 -d 4 -p cbr -e 1000 -c 1 -i 2 -a 1 -x {1.0 2.0 1 ------- null}
- -t 1.008 -s 1 -d 4 -p cbr -e 1000 -c 1 -i 2 -a 1 -x {1.0 2.0 1 ------- null}
h -t 1.008 -s 1 -d 4 -p cbr -e 1000 -c 1 -i 2 -a 1 -x {1.0 2.0 -1 ------- null}
r -t 1.01032 -s 0 -d 4 -p tcp -e 40 -c 2 -i 0 -a 2 -x {0.0 3.0 0 ------- null}
+ -t 1.01032 -s 4 -d 3 -p tcp -e 40 -c 2 -i 0 -a 2 -x {0.0 3.0 0 ------- null}
- -t 1.01032 -s 4 -d 3 -p tcp -e 40 -c 2 -i 0 -a 2 -x {0.0 3.0 0 ------- null}
h -t 1.01032 -s 4 -d 3 -p tcp -e 40 -c 2 -i 0 -a 2 -x {0.0 3.0 -1 ------- null}
+ -t 1.016 -s 1 -d 4 -p cbr -e 1000 -c 1 -i 3 -a 1 -x {1.0 2.0 2 ------- null}
- -t 1.016 -s 1 -d 4 -p cbr -e 1000 -c 1 -i 3 -a 1 -x {1.0 2.0 2 ------- null}
h -t 1.016 -s 1 -d 4 -p cbr -e 1000 -c 1 -i 3 -a 1 -x {1.0 2.0 -1 ------- null}
r -t 1.018 -s 1 -d 4 -p cbr -e 1000 -c 1 -i 1 -a 1 -x {1.0 2.0 0 ------- null}
+ -t 1.018 -s 4 -d 2 -p cbr -e 1000 -c 1 -i 1 -a 1 -x {1.0 2.0 0 ------- null}
- -t 1.018 -s 4 -d 2 -p cbr -e 1000 -c 1 -i 1 -a 1 -x {1.0 2.0 0 ------- null}
h -t 1.018 -s 4 -d 2 -p cbr -e 1000 -c 1 -i 1 -a 1 -x {1.0 2.0 -1 ------- null}
r -t 1.02064 -s 4 -d 3 -p tcp -e 40 -c 2 -i 0 -a 2 -x {0.0 3.0 0 ------- null}
+ -t 1.02064 -s 3 -d 4 -p ack -e 40 -c 2 -i 4 -a 2 -x {3.0 0.0 0 ------- null}
- -t 1.02064 -s 3 -d 4 -p ack -e 40 -c 2 -i 4 -a 2 -x {3.0 0.0 0 ------- null}
h -t 1.02064 -s 3 -d 4 -p ack -e 40 -c 2 -i 4 -a 2 -x {3.0 0.0 -1 ------- null}
+ -t 1.024 -s 1 -d 4 -p cbr -e 1000 -c 1 -i 5 -a 1 -x {1.0 2.0 3 ------- null}
- -t 1.024 -s 1 -d 4 -p cbr -e 1000 -c 1 -i 5 -a 1 -x {1.0 2.0 3 ------- null}
h -t 1.024 -s 1 -d 4 -p cbr -e 1000 -c 1 -i 5 -a 1 -x {1.0 2.0 -1 ------- null}
r -t 1.026 -s 1 -d 4 -p cbr -e 1000 -c 1 -i 2 -a 1 -x {1.0 2.0 1 ------- null}
+ -t 1.026 -s 4 -d 2 -p cbr -e 1000 -c 1 -i 2 -a 1 -x {1.0 2.0 1 ------- null}
- -t 1.026 -s 4 -d 2 -p cbr -e 1000 -c 1 -i 2 -a 1 -x {1.0 2.0 1 ------- null}
h -t 1.026 -s 4 -d 2 -p cbr -e 1000 -c 1 -i 2 -a 1 -x {1.0 2.0 -1 ------- null}
r -t 1.03096 -s 3 -d 4 -p ack -e 40 -c 2 -i 4 -a 2 -x {3.0 0.0 0 ------- null}
+ -t 1.03096 -s 4 -d 0 -p ack -e 40 -c 2 -i 4 -a 2 -x {3.0 0.0 0 ------- null}
- -t 1.03096 -s 4 -d 0 -p ack -e 40 -c 2 -i 4 -a 2 -x {3.0 0.0 0 ------- null}
h -t 1.03096 -s 4 -d 0 -p ack -e 40 -c 2 -i 4 -a 2 -x {3.0 0.0 -1 ------- null}
+ -t 1.032 -s 1 -d 4 -p cbr -e 1000 -c 1 -i 6 -a 1 -x {1.0 2.0 4 ------- null}
- -t 1.032 -s 1 -d 4 -p cbr -e 1000 -c 1 -i 6 -a 1 -x {1.0 2.0 4 ------- null}
h -t 1.032 -s 1 -d 4 -p cbr -e 1000 -c 1 -i 6 -a 1 -x {1.0 2.0 -1 ------- null}
r -t 1.034 -s 1 -d 4 -p cbr -e 1000 -c 1 -i 3 -a 1 -x {1.0 2.0 2 ------- null}
+ -t 1.034 -s 4 -d 2 -p cbr -e 1000 -c 1 -i 3 -a 1 -x {1.0 2.0 2 ------- null}
- -t 1.034 -s 4 -d 2 -p cbr -e 1000 -c 1 -i 3 -a 1 -x {1.0 2.0 2 ------- null}
h -t 1.034 -s 4 -d 2 -p cbr -e 1000 -c 1 -i 3 -a 1 -x {1.0 2.0 -1 ------- null}
r -t 1.036 -s 4 -d 2 -p cbr -e 1000 -c 1 -i 1 -a 1 -x {1.0 2.0 0 ------- null}
+ -t 1.04 -s 1 -d 4 -p cbr -e 1000 -c 1 -i 7 -a 1 -x {1.0 2.0 5 ------- null}
- -t 1.04 -s 1 -d 4 -p cbr -e 1000 -c 1 -i 7 -a 1 -x {1.0 2.0 5 ------- null}
h -t 1.04 -s 1 -d 4 -p cbr -e 1000 -c 1 -i 7 -a 1 -x {1.0 2.0 -1 ------- null}
r -t 1.04128 -s 4 -d 0 -p ack -e 40 -c 2 -i 4 -a 2 -x {3.0 0.0 0 ------- null}
+ -t 1.04128 -s 0 -d 4 -p tcp -e 1040 -c 2 -i 8 -a 2 -x {0.0 3.0 1 ------- null}
- -t 1.04128 -s 0 -d 4 -p tcp -e 1040 -c 2 -i 8 -a 2 -x {0.0 3.0 1 ------- null}
h -t 1.04128 -s 0 -d 4 -p tcp -e 1040 -c 2 -i 8 -a 2 -x {0.0 3.0 -1 ------- null}
+ -t 1.04128 -s 0 -d 4 -p tcp -e 1040 -c 2 -i 9 -a 2 -x {0.0 3.0 2 ------- null}
r -t 1.042 -s 1 -d 4 -p cbr -e 1000 -c 1 -i 5 -a 1 -x {1.0 2.0 3 ------- null}
+ -t 1.042 -s 4 -d 2 -p cbr -e 1000 -c 1 -i 5 -a 1 -x {1.0 2.0 3 ------- null}
- -t 1.042 -s 4 -d 2 -p cbr -e 1000 -c 1 -i 5 -a 1 -x {1.0 2.0 3 ------- null}
h -t 1.042 -s 4 -d 2 -p cbr -e 1000 -c 1 -i 5 -a 1 -x {1.0 2.0 -1 ------- null}
r -t 1.044 -s 4 -d 2 -p cbr -e 1000 -c 1 -i 2 -a 1 -x {1.0 2.0 1 ------- null}
+ -t 1.048 -s 1 -d 4 -p cbr -e 1000 -c 1 -i 10 -a 1 -x {1.0 2.0 6 ------- null}
- -t 1.048 -s 1 -d 4 -p cbr -e 1000 -c 1 -i 10 -a 1 -x {1.0 2.0 6 ------- null}
h -t 1.048 -s 1 -d 4 -p cbr -e 1000 -c 1 -i 10 -a 1 -x {1.0 2.0 -1 ------- null}
- -t 1.0496 -s 0 -d 4 -p tcp -e 1040 -c 2 -i 9 -a 2 -x {0.0 3.0 2 ------- null}
h -t 1.0496 -s 0 -d 4 -p tcp -e 1040 -c 2 -i 9 -a 2 -x {0.0 3.0 -1 ------- null}
r -t 1.05 -s 1 -d 4 -p cbr -e 1000 -c 1 -i 6 -a 1 -x {1.0 2.0 4 ------- null}
+ -t 1.05 -s 4 -d 2 -p cbr -e 1000 -c 1 -i 6 -a 1 -x {1.0 2.0 4 ------- null}
- -t 1.05 -s 4 -d 2 -p cbr -e 1000 -c 1 -i 6 -a 1 -x {1.0 2.0 4 ------- null}
h -t 1.05 -s 4 -d 2 -p cbr -e 1000 -c 1 -i 6 -a 1 -x {1.0 2.0 -1 ------- null}
r -t 1.052 -s 4 -d 2 -p cbr -e 1000 -c 1 -i 3 -a 1 -x {1.0 2.0 2 ------- null}
+ -t 1.056 -s 1 -d 4 -p cbr -e 1000 -c 1 -i 11 -a 1 -x {1.0 2.0 7 ------- null}
- -t 1.056 -s 1 -d 4 -p cbr -e 1000 -c 1 -i 11 -a 1 -x {1.0 2.0 7 ------- null}
h -t 1.056 -s 1 -d 4 -p cbr -e 1000 -c 1 -i 11 -a 1 -x {1.0 2.0 -1 ------- null}
r -t 1.058 -s 1 -d 4 -p cbr -e 1000 -c 1 -i 7 -a 1 -x {1.0 2.0 5 ------- null}
+ -t 1.058 -s 4 -d 2 -p cbr -e 1000 -c 1 -i 7 -a 1 -x {1.0 2.0 5 ------- null}
- -t 1.058 -s 4 -d 2 -p cbr -e 1000 -c 1 -i 7 -a 1 -x {1.0 2.0 5 ------- null}
h -t 1.058 -s 4 -d 2 -p cbr -e 1000 -c 1 -i 7 -a 1 -x {1.0 2.0 -1 ------- null}
r -t 1.0596 -s 0 -d 4 -p tcp -e 1040 -c 2 -i 8 -a 2 -x {0.0 3.0 1 ------- null}
+ -t 1.0596 -s 4 -d 3 -p tcp -e 1040 -c 2 -i 8 -a 2 -x {0.0 3.0 1 ------- null}
- -t 1.0596 -s 4 -d 3 -p tcp -e 1040 -c 2 -i 8 -a 2 -x {0.0 3.0 1 ------- null}
h -t 1.0596 -s 4 -d 3 -p tcp -e 1040 -c 2 -i 8 -a 2 -x {0.0 3.0 -1 ------- null}
r -t 1.06 -s 4 -d 2 -p cbr -e 1000 -c 1 -i 5 -a 1 -x {1.0 2.0 3 ------- null}
+ -t 1.064 -s 1 -d 4 -p cbr -e 1000 -c 1 -i 12 -a 1 -x {1.0 2.0 8 ------- null}
- -t 1.064 -s 1 -d 4 -p cbr -e 1000 -c 1 -i 12 -a 1 -x {1.0 2.0 8 ------- null}
h -t 1.064 -s 1 -d 4 -p cbr -e 1000 -c 1 -i 12 -a 1 -x {1.0 2.0 -1 ------- null}
r -t 1.066 -s 1 -d 4 -p cbr -e 1000 -c 1 -i 10 -a 1 -x {1.0 2.0 6 ------- null}
+ -t 1.066 -s 4 -d 2 -p cbr -e 1000 -c 1 -i 10 -a 1 -x {1.0 2.0 6 ------- null}
- -t 1.066 -s 4 -d 2 -p cbr -e 1000 -c 1 -i 10 -a 1 -x {1.0 2.0 6 ------- null}
h -t 1.066 -s 4 -d 2 -p cbr -e 1000 -c 1 -i 10 -a 1 -x {1.0 2.0 -1 ------- null}
r -t 1.06792 -s 0 -d 4 -p tcp -e 1040 -c 2 -i 9 -a 2 -x {0.0 3.0 2 ------- null}
+ -t 1.06792 -s 4 -d 3 -p tcp -e 1040 -c 2 -i 9 -a 2 -x {0.0 3.0 2 ------- null}
- -t 1.06792 -s 4 -d 3 -p tcp -e 1040 -c 2 -i 9 -a 2 -x {0.0 3.0 2 ------- null}
h -t 1.06792 -s 4 -d 3 -p tcp -e 1040 -c 2 -i 9 -a 2 -x {0.0 3.0 -1 ------- null}
r -t 1.068 -s 4 -d 2 -p cbr -e 1000 -c 1 -i 6 -a 1 -x {1.0 2.0 4 ------- null}
+ -t 1.072 -s 1 -d 4 -p cbr -e 1000 -c 1 -i 13 -a 1 -x {1.0 2.0 9 ------- null}
- -t 1.072 -s 1 -d 4 -p cbr -e 1000 -c 1 -i 13 -a 1 -x {1.0 2.0 9 ------- null}
h -t 1.072 -s 1 -d 4 -p cbr -e 1000 -c 1 -i 13 -a 1 -x {1.0 2.0 -1 ------- null}
r -t 1.074 -s 1 -d 4 -p cbr -e 1000 -c 1 -i 11 -a 1 -x {1.0 2.0 7 ------- null}
+ -t 1.074 -s 4 -d 2 -p cbr -e 1000 -c 1 -i 11 -a 1 -x {1.0 2.0 7 ------- null}
- -t 1.074 -s 4 -d 2 -p cbr -e 1000 -c 1 -i 11 -a 1 -x {1.0 2.0 7 ------- null}
h -t 1.074 -s 4 -d 2 -p cbr -e 1000 -c 1 -i 11 -a 1 -x {1.0 2.0 -1 ------- null}
r -t 1.076 -s 4 -d 2 -p cbr -e 1000 -c 1 -i 7 -a 1 -x {1.0 2.0 5 ------- null}
r -t 1.07792 -s 4 -d 3 -p tcp -e 1040 -c 2 -i 8 -a 2 -x {0.0 3.0 1 ------- null}
+ -t 1.07792 -s 3 -d 4 -p ack -e 40 -c 2 -i 14 -a 2 -x {3.0 0.0 1 ------- null}
- -t 1.07792 -s 3 -d 4 -p ack -e 40 -c 2 -i 14 -a 2 -x {3.0 0.0 1 ------- null}
h -t 1.07792 -s 3 -d 4 -p ack -e 40 -c 2 -i 14 -a 2 -x {3.0 0.0 -1 ------- null}
+ -t 1.08 -s 1 -d 4 -p cbr -e 1000 -c 1 -i 15 -a 1 -x {1.0 2.0 10 ------- null}
- -t 1.08 -s 1 -d 4 -p cbr -e 1000 -c 1 -i 15 -a 1 -x {1.0 2.0 10 ------- null}
h -t 1.08 -s 1 -d 4 -p cbr -e 1000 -c 1 -i 15 -a 1 -x {1.0 2.0 -1 ------- null}
r -t 1.082 -s 1 -d 4 -p cbr -e 1000 -c 1 -i 12 -a 1 -x {1.0 2.0 8 ------- null}
+ -t 1.082 -s 4 -d 2 -p cbr -e 1000 -c 1 -i 12 -a 1 -x {1.0 2.0 8 ------- null}
- -t 1.082 -s 4 -d 2 -p cbr -e 1000 -c 1 -i 12 -a 1 -x {1.0 2.0 8 ------- null}
h -t 1.082 -s 4 -d 2 -p cbr -e 1000 -c 1 -i 12 -a 1 -x {1.0 2.0 -1 ------- null}
r -t 1.084 -s 4 -d 2 -p cbr -e 1000 -c 1 -i 10 -a 1 -x {1.0 2.0 6 ------- null}
r -t 1.08624 -s 4 -d 3 -p tcp -e 1040 -c 2 -i 9 -a 2 -x {0.0 3.0 2 ------- null}
+ -t 1.08624 -s 3 -d 4 -p ack -e 40 -c 2 -i 16 -a 2 -x {3.0 0.0 2 ------- null}
- -t 1.08624 -s 3 -d 4 -p ack -e 40 -c 2 -i 16 -a 2 -x {3.0 0.0 2 ------- null}
h -t 1.08624 -s 3 -d 4 -p ack -e 40 -c 2 -i 16 -a 2 -x {3.0 0.0 -1 ------- null}
+ -t 1.088 -s 1 -d 4 -p cbr -e 1000 -c 1 -i 17 -a 1 -x {1.0 2.0 11 ------- null}
- -t 1.088 -s 1 -d 4 -p cbr -e 1000 -c 1 -i 17 -a 1 -x {1.0 2.0 11 ------- null}
h -t 1.088 -s 1 -d 4 -p cbr -e 1000 -c 1 -i 17 -a 1 -x {1.0 2.0 -1 ------- null}
r -t 1.08824 -s 3 -d 4 -p ack -e 40 -c 2 -i 14 -a 2 -x {3.0 0.0 1 ------- null}
+ -t 1.08824 -s 4 -d 0 -p ack -e 40 -c 2 -i 14 -a 2 -x {3.0 0.0 1 ------- null}
- -t 1.08824 -s 4 -d 0 -p ack -e 40 -c 2 -i 14 -a 2 -x {3.0 0.0 1 ------- null}
h -t 1.08824 -s 4 -d 0 -p ack -e 40 -c 2 -i 14 -a 2 -x {3.0 0.0 -1 ------- null}
r -t 1.09 -s 1 -d 4 -p cbr -e 1000 -c 1 -i 13 -a 1 -x {1.0 2.0 9 ------- null}
+ -t 1.09 -s 4 -d 2 -p cbr -e 1000 -c 1 -i 13 -a 1 -x {1.0 2.0 9 ------- null}
- -t 1.09 -s 4 -d 2 -p cbr -e 1000 -c 1 -i 13 -a 1 -x {1.0 2.0 9 ------- null}
h -t 1.09 -s 4 -d 2 -p cbr -e 1000 -c 1 -i 13 -a 1 -x {1.0 2.0 -1 ------- null}
r -t 1.092 -s 4 -d 2 -p cbr -e 1000 -c 1 -i 11 -a 1 -x {1.0 2.0 7 ------- null}
+ -t 1.096 -s 1 -d 4 -p cbr -e 1000 -c 1 -i 18 -a 1 -x {1.0 2.0 12 ------- null}
- -t 1.096 -s 1 -d 4 -p cbr -e 1000 -c 1 -i 18 -a 1 -x {1.0 2.0 12 ------- null}
h -t 1.096 -s 1 -d 4 -p cbr -e 1000 -c 1 -i 18 -a 1 -x {1.0 2.0 -1 ------- null}
r -t 1.09656 -s 3 -d 4 -p ack -e 40 -c 2 -i 16 -a 2 -x {3.0 0.0 2 ------- null}
+ -t 1.09656 -s 4 -d 0 -p ack -e 40 -c 2 -i 16 -a 2 -x {3.0 0.0 2 ------- null}
- -t 1.09656 -s 4 -d 0 -p ack -e 40 -c 2 -i 16 -a 2 -x {3.0 0.0 2 ------- null}
h -t 1.09656 -s 4 -d 0 -p ack -e 40 -c 2 -i 16 -a 2 -x {3.0 0.0 -1 ------- null}
r -t 1.098 -s 1 -d 4 -p cbr -e 1000 -c 1 -i 15 -a 1 -x {1.0 2.0 10 ------- null}
+ -t 1.098 -s 4 -d 2 -p cbr -e 1000 -c 1 -i 15 -a 1 -x {1.0 2.0 10 ------- null}
- -t 1.098 -s 4 -d 2 -p cbr -e 1000 -c 1 -i 15 -a 1 -x {1.0 2.0 10 ------- null}
h -t 1.098 -s 4 -d 2 -p cbr -e 1000 -c 1 -i 15 -a 1 -x {1.0 2.0 -1 ------- null}
r -t 1.09856 -s 4 -d 0 -p ack -e 40 -c 2 -i 14 -a 2 -x {3.0 0.0 1 ------- null}
+ -t 1.09856 -s 0 -d 4 -p tcp -e 1040 -c 2 -i 19 -a 2 -x {0.0 3.0 3 ------- null}
- -t 1.09856 -s 0 -d 4 -p tcp -e 1040 -c 2 -i 19 -a 2 -x {0.0 3.0 3 ------- null}
h -t 1.09856 -s 0 -d 4 -p tcp -e 1040 -c 2 -i 19 -a 2 -x {0.0 3.0 -1 ------- null}
+ -t 1.09856 -s 0 -d 4 -p tcp -e 1040 -c 2 -i 20 -a 2 -x {0.0 3.0 4 ------- null}
r -t 1.1 -s 4 -d 2 -p cbr -e 1000 -c 1 -i 12 -a 1 -x {1.0 2.0 8 ------- null}
+ -t 1.104 -s 1 -d 4 -p cbr -e 1000 -c 1 -i 21 -a 1 -x {1.0 2.0 13 ------- null}
- -t 1.104 -s 1 -d 4 -p cbr -e 1000 -c 1 -i 21 -a 1 -x {1.0 2.0 13 ------- null}
h -t 1.104 -s 1 -d 4 -p cbr -e 1000 -c 1 -i 21 -a 1 -x {1.0 2.0 -1 ------- null}
r -t 1.106 -s 1 -d 4 -p cbr -e 1000 -c 1 -i 17 -a 1 -x {1.0 2.0 11 ------- null}
+ -t 1.106 -s 4 -d 2 -p cbr -e 1000 -c 1 -i 17 -a 1 -x {1.0 2.0 11 ------- null}
- -t 1.106 -s 4 -d 2 -p cbr -e 1000 -c 1 -i 17 -a 1 -x {1.0 2.0 11 ------- null}
h -t 1.106 -s 4 -d 2 -p cbr -e 1000 -c 1 -i 17 -a 1 -x {1.0 2.0 -1 ------- null}
r -t 1.10688 -s 4 -d 0 -p ack -e 40 -c 2 -i 16 -a 2 -x {3.0 0.0 2 ------- null}
+ -t 1.10688 -s 0 -d 4 -p tcp -e 1040 -c 2 -i 22 -a 2 -x {0.0 3.0 5 ------- null}
+ -t 1.10688 -s 0 -d 4 -p tcp -e 1040 -c 2 -i 23 -a 2 -x {0.0 3.0 6 ------- null}
- -t 1.10688 -s 0 -d 4 -p tcp -e 1040 -c 2 -i 20 -a 2 -x {0.0 3.0 4 ------- null}
h -t 1.10688 -s 0 -d 4 -p tcp -e 1040 -c 2 -i 20 -a 2 -x {0.0 3.0 -1 ------- null}
r -t 1.108 -s 4 -d 2 -p cbr -e 1000 -c 1 -i 13 -a 1 -x {1.0 2.0 9 ------- null}
+ -t 1.112 -s 1 -d 4 -p cbr -e 1000 -c 1 -i 24 -a 1 -x {1.0 2.0 14 ------- null}
- -t 1.112 -s 1 -d 4 -p cbr -e 1000 -c 1 -i 24 -a 1 -x {1.0 2.0 14 ------- null}
h -t 1.112 -s 1 -d 4 -p cbr -e 1000 -c 1 -i 24 -a 1 -x {1.0 2.0 -1 ------- null}
r -t 1.114 -s 1 -d 4 -p cbr -e 1000 -c 1 -i 18 -a 1 -x {1.0 2.0 12 ------- null}
+ -t 1.114 -s 4 -d 2 -p cbr -e 1000 -c 1 -i 18 -a 1 -x {1.0 2.0 12 ------- null}
- -t 1.114 -s 4 -d 2 -p cbr -e 1000 -c 1 -i 18 -a 1 -x {1.0 2.0 12 ------- null}
h -t 1.114 -s 4 -d 2 -p cbr -e 1000 -c 1 -i 18 -a 1 -x {1.0 2.0 -1 ------- null}
- -t 1.1152 -s 0 -d 4 -p tcp -e 1040 -c 2 -i 22 -a 2 -x {0.0 3.0 5 ------- null}
h -t 1.1152 -s 0 -d 4 -p tcp -e 1040 -c 2 -i 22 -a 2 -x {0.0 3.0 -1 ------- null}
r -t 1.116 -s 4 -d 2 -p cbr -e 1000 -c 1 -i 15 -a 1 -x {1.0 2.0 10 ------- null}
r -t 1.11688 -s 0 -d 4 -p tcp -e 1040 -c 2 -i 19 -a 2 -x {0.0 3.0 3 ------- null}
+ -t 1.11688 -s 4 -d 3 -p tcp -e 1040 -c 2 -i 19 -a 2 -x {0.0 3.0 3 ------- null}
- -t 1.11688 -s 4 -d 3 -p tcp -e 1040 -c 2 -i 19 -a 2 -x {0.0 3.0 3 ------- null}
h -t 1.11688 -s 4 -d 3 -p tcp -e 1040 -c 2 -i 19 -a 2 -x {0.0 3.0 -1 ------- null}
+ -t 1.12 -s 1 -d 4 -p cbr -e 1000 -c 1 -i 25 -a 1 -x {1.0 2.0 15 ------- null}
- -t 1.12 -s 1 -d 4 -p cbr -e 1000 -c 1 -i 25 -a 1 -x {1.0 2.0 15 ------- null}
h -t 1.12 -s 1 -d 4 -p cbr -e 1000 -c 1 -i 25 -a 1 -x {1.0 2.0 -1 ------- null}
r -t 1.122 -s 1 -d 4 -p cbr -e 1000 -c 1 -i 21 -a 1 -x {1.0 2.0 13 ------- null}
+ -t 1.122 -s 4 -d 2 -p cbr -e 1000 -c 1 -i 21 -a 1 -x {1.0 2.0 13 ------- null}
- -t 1.122 -s 4 -d 2 -p cbr -e 1000 -c 1 -i 21 -a 1 -x {1.0 2.0 13 ------- null}
h -t 1.122 -s 4 -d 2 -p cbr -e 1000 -c 1 -i 21 -a 1 -x {1.0 2.0 -1 ------- null}
- -t 1.12352 -s 0 -d 4 -p tcp -e 1040 -c 2 -i 23 -a 2 -x {0.0 3.0 6 ------- null}
h -t 1.12352 -s 0 -d 4 -p tcp -e 1040 -c 2 -i 23 -a 2 -x {0.0 3.0 -1 ------- null}
r -t 1.124 -s 4 -d 2 -p cbr -e 1000 -c 1 -i 17 -a 1 -x {1.0 2.0 11 ------- null}
r -t 1.1252 -s 0 -d 4 -p tcp -e 1040 -c 2 -i 20 -a 2 -x {0.0 3.0 4 ------- null}
+ -t 1.1252 -s 4 -d 3 -p tcp -e 1040 -c 2 -i 20 -a 2 -x {0.0 3.0 4 ------- null}
- -t 1.1252 -s 4 -d 3 -p tcp -e 1040 -c 2 -i 20 -a 2 -x {0.0 3.0 4 ------- null}
h -t 1.1252 -s 4 -d 3 -p tcp -e 1040 -c 2 -i 20 -a 2 -x {0.0 3.0 -1 ------- null}
+ -t 1.128 -s 1 -d 4 -p cbr -e 1000 -c 1 -i 26 -a 1 -x {1.0 2.0 16 ------- null}
- -t 1.128 -s 1 -d 4 -p cbr -e 1000 -c 1 -i 26 -a 1 -x {1.0 2.0 16 ------- null}
h -t 1.128 -s 1 -d 4 -p cbr -e 1000 -c 1 -i 26 -a 1 -x {1.0 2.0 -1 ------- null}
r -t 1.13 -s 1 -d 4 -p cbr -e 1000 -c 1 -i 24 -a 1 -x {1.0 2.0 14 ------- null}
+ -t 1.13 -s 4 -d 2 -p cbr -e 1000 -c 1 -i 24 -a 1 -x {1.0 2.0 14 ------- null}
- -t 1.13 -s 4 -d 2 -p cbr -e 1000 -c 1 -i 24 -a 1 -x {1.0 2.0 14 ------- null}
h -t 1.13 -s 4 -d 2 -p cbr -e 1000 -c 1 -i 24 -a 1 -x {1.0 2.0 -1 ------- null}
r -t 1.132 -s 4 -d 2 -p cbr -e 1000 -c 1 -i 18 -a 1 -x {1.0 2.0 12 ------- null}
r -t 1.13352 -s 0 -d 4 -p tcp -e 1040 -c 2 -i 22 -a 2 -x {0.0 3.0 5 ------- null}
+ -t 1.13352 -s 4 -d 3 -p tcp -e 1040 -c 2 -i 22 -a 2 -x {0.0 3.0 5 ------- null}
- -t 1.13352 -s 4 -d 3 -p tcp -e 1040 -c 2 -i 22 -a 2 -x {0.0 3.0 5 ------- null}
h -t 1.13352 -s 4 -d 3 -p tcp -e 1040 -c 2 -i 22 -a 2 -x {0.0 3.0 -1 ------- null}
r -t 1.1352 -s 4 -d 3 -p tcp -e 1040 -c 2 -i 19 -a 2 -x {0.0 3.0 3 ------- null}
+ -t 1.1352 -s 3 -d 4 -p ack -e 40 -c 2 -i 27 -a 2 -x {3.0 0.0 3 ------- null}
- -t 1.1352 -s 3 -d 4 -p ack -e 40 -c 2 -i 27 -a 2 -x {3.0 0.0 3 ------- null}
h -t 1.1352 -s 3 -d 4 -p ack -e 40 -c 2 -i 27 -a 2 -x {3.0 0.0 -1 ------- null}
+ -t 1.136 -s 1 -d 4 -p cbr -e 1000 -c 1 -i 28 -a 1 -x {1.0 2.0 17 ------- null}
- -t 1.136 -s 1 -d 4 -p cbr -e 1000 -c 1 -i 28 -a 1 -x {1.0 2.0 17 ------- null}
h -t 1.136 -s 1 -d 4 -p cbr -e 1000 -c 1 -i 28 -a 1 -x {1.0 2.0 -1 ------- null}
r -t 1.138 -s 1 -d 4 -p cbr -e 1000 -c 1 -i 25 -a 1 -x {1.0 2.0 15 ------- null}
+ -t 1.138 -s 4 -d 2 -p cbr -e 1000 -c 1 -i 25 -a 1 -x {1.0 2.0 15 ------- null}
- -t 1.138 -s 4 -d 2 -p cbr -e 1000 -c 1 -i 25 -a 1 -x {1.0 2.0 15 ------- null}
h -t 1.138 -s 4 -d 2 -p cbr -e 1000 -c 1 -i 25 -a 1 -x {1.0 2.0 -1 ------- null}
r -t 1.14 -s 4 -d 2 -p cbr -e 1000 -c 1 -i 21 -a 1 -x {1.0 2.0 13 ------- null}
r -t 1.14184 -s 0 -d 4 -p tcp -e 1040 -c 2 -i 23 -a 2 -x {0.0 3.0 6 ------- null}
+ -t 1.14184 -s 4 -d 3 -p tcp -e 1040 -c 2 -i 23 -a 2 -x {0.0 3.0 6 ------- null}
- -t 1.14184 -s 4 -d 3 -p tcp -e 1040 -c 2 -i 23 -a 2 -x {0.0 3.0 6 ------- null}
h -t 1.14184 -s 4 -d 3 -p tcp -e 1040 -c 2 -i 23 -a 2 -x {0.0 3.0 -1 ------- null}
r -t 1.14352 -s 4 -d 3 -p tcp -e 1040 -c 2 -i 20 -a 2 -x {0.0 3.0 4 ------- null}
+ -t 1.14352 -s 3 -d 4 -p ack -e 40 -c 2 -i 29 -a 2 -x {3.0 0.0 4 ------- null}
- -t 1.14352 -s 3 -d 4 -p ack -e 40 -c 2 -i 29 -a 2 -x {3.0 0.0 4 ------- null}
h -t 1.14352 -s 3 -d 4 -p ack -e 40 -c 2 -i 29 -a 2 -x {3.0 0.0 -1 ------- null}
+ -t 1.144 -s 1 -d 4 -p cbr -e 1000 -c 1 -i 30 -a 1 -x {1.0 2.0 18 ------- null}
- -t 1.144 -s 1 -d 4 -p cbr -e 1000 -c 1 -i 30 -a 1 -x {1.0 2.0 18 ------- null}
h -t 1.144 -s 1 -d 4 -p cbr -e 1000 -c 1 -i 30 -a 1 -x {1.0 2.0 -1 ------- null}
r -t 1.14552 -s 3 -d 4 -p ack -e 40 -c 2 -i 27 -a 2 -x {3.0 0.0 3 ------- null}
+ -t 1.14552 -s 4 -d 0 -p ack -e 40 -c 2 -i 27 -a 2 -x {3.0 0.0 3 ------- null}
- -t 1.14552 -s 4 -d 0 -p ack -e 40 -c 2 -i 27 -a 2 -x {3.0 0.0 3 ------- null}
h -t 1.14552 -s 4 -d 0 -p ack -e 40 -c 2 -i 27 -a 2 -x {3.0 0.0 -1 ------- null}
r -t 1.146 -s 1 -d 4 -p cbr -e 1000 -c 1 -i 26 -a 1 -x {1.0 2.0 16 ------- null}
+ -t 1.146 -s 4 -d 2 -p cbr -e 1000 -c 1 -i 26 -a 1 -x {1.0 2.0 16 ------- null}
- -t 1.146 -s 4 -d 2 -p cbr -e 1000 -c 1 -i 26 -a 1 -x {1.0 2.0 16 ------- null}
h -t 1.146 -s 4 -d 2 -p cbr -e 1000 -c 1 -i 26 -a 1 -x {1.0 2.0 -1 ------- null}
r -t 1.148 -s 4 -d 2 -p cbr -e 1000 -c 1 -i 24 -a 1 -x {1.0 2.0 14 ------- null}
r -t 1.15184 -s 4 -d 3 -p tcp -e 1040 -c 2 -i 22 -a 2 -x {0.0 3.0 5 ------- null}
+ -t 1.15184 -s 3 -d 4 -p ack -e 40 -c 2 -i 31 -a 2 -x {3.0 0.0 5 ------- null}
- -t 1.15184 -s 3 -d 4 -p ack -e 40 -c 2 -i 31 -a 2 -x {3.0 0.0 5 ------- null}
h -t 1.15184 -s 3 -d 4 -p ack -e 40 -c 2 -i 31 -a 2 -x {3.0 0.0 -1 ------- null}
+ -t 1.152 -s 1 -d 4 -p cbr -e 1000 -c 1 -i 32 -a 1 -x {1.0 2.0 19 ------- null}
- -t 1.152 -s 1 -d 4 -p cbr -e 1000 -c 1 -i 32 -a 1 -x {1.0 2.0 19 ------- null}
h -t 1.152 -s 1 -d 4 -p cbr -e 1000 -c 1 -i 32 -a 1 -x {1.0 2.0 -1 ------- null}
r -t 1.15384 -s 3 -d 4 -p ack -e 40 -c 2 -i 29 -a 2 -x {3.0 0.0 4 ------- null}
+ -t 1.15384 -s 4 -d 0 -p ack -e 40 -c 2 -i 29 -a 2 -x {3.0 0.0 4 ------- null}
- -t 1.15384 -s 4 -d 0 -p ack -e 40 -c 2 -i 29 -a 2 -x {3.0 0.0 4 ------- null}
h -t 1.15384 -s 4 -d 0 -p ack -e 40 -c 2 -i 29 -a 2 -x {3.0 0.0 -1 ------- null}
r -t 1.154 -s 1 -d 4 -p cbr -e 1000 -c 1 -i 28 -a 1 -x {1.0 2.0 17 ------- null}
+ -t 1.154 -s 4 -d 2 -p cbr -e 1000 -c 1 -i 28 -a 1 -x {1.0 2.0 17 ------- null}
- -t 1.154 -s 4 -d 2 -p cbr -e 1000 -c 1 -i 28 -a 1 -x {1.0 2.0 17 ------- null}
h -t 1.154 -s 4 -d 2 -p cbr -e 1000 -c 1 -i 28 -a 1 -x {1.0 2.0 -1 ------- null}
r -t 1.15584 -s 4 -d 0 -p ack -e 40 -c 2 -i 27 -a 2 -x {3.0 0.0 3 ------- null}
+ -t 1.15584 -s 0 -d 4 -p tcp -e 1040 -c 2 -i 33 -a 2 -x {0.0 3.0 7 ------- null}
- -t 1.15584 -s 0 -d 4 -p tcp -e 1040 -c 2 -i 33 -a 2 -x {0.0 3.0 7 ------- null}
h -t 1.15584 -s 0 -d 4 -p tcp -e 1040 -c 2 -i 33 -a 2 -x {0.0 3.0 -1 ------- null}
+ -t 1.15584 -s 0 -d 4 -p tcp -e 1040 -c 2 -i 34 -a 2 -x {0.0 3.0 8 ------- null}
r -t 1.156 -s 4 -d 2 -p cbr -e 1000 -c 1 -i 25 -a 1 -x {1.0 2.0 15 ------- null}
+ -t 1.16 -s 1 -d 4 -p cbr -e 1000 -c 1 -i 35 -a 1 -x {1.0 2.0 20 ------- null}
- -t 1.16 -s 1 -d 4 -p cbr -e 1000 -c 1 -i 35 -a 1 -x {1.0 2.0 20 ------- null}
h -t 1.16 -s 1 -d 4 -p cbr -e 1000 -c 1 -i 35 -a 1 -x {1.0 2.0 -1 ------- null}
r -t 1.16016 -s 4 -d 3 -p tcp -e 1040 -c 2 -i 23 -a 2 -x {0.0 3.0 6 ------- null}
+ -t 1.16016 -s 3 -d 4 -p ack -e 40 -c 2 -i 36 -a 2 -x {3.0 0.0 6 ------- null}
- -t 1.16016 -s 3 -d 4 -p ack -e 40 -c 2 -i 36 -a 2 -x {3.0 0.0 6 ------- null}
h -t 1.16016 -s 3 -d 4 -p ack -e 40 -c 2 -i 36 -a 2 -x {3.0 0.0 -1 ------- null}
r -t 1.162 -s 1 -d 4 -p cbr -e 1000 -c 1 -i 30 -a 1 -x {1.0 2.0 18 ------- null}
+ -t 1.162 -s 4 -d 2 -p cbr -e 1000 -c 1 -i 30 -a 1 -x {1.0 2.0 18 ------- null}
- -t 1.162 -s 4 -d 2 -p cbr -e 1000 -c 1 -i 30 -a 1 -x {1.0 2.0 18 ------- null}
h -t 1.162 -s 4 -d 2 -p cbr -e 1000 -c 1 -i 30 -a 1 -x {1.0 2.0 -1 ------- null}
r -t 1.16216 -s 3 -d 4 -p ack -e 40 -c 2 -i 31 -a 2 -x {3.0 0.0 5 ------- null}
+ -t 1.16216 -s 4 -d 0 -p ack -e 40 -c 2 -i 31 -a 2 -x {3.0 0.0 5 ------- null}
- -t 1.16216 -s 4 -d 0 -p ack -e 40 -c 2 -i 31 -a 2 -x {3.0 0.0 5 ------- null}
h -t 1.16216 -s 4 -d 0 -p ack -e 40 -c 2 -i 31 -a 2 -x {3.0 0.0 -1 ------- null}
r -t 1.164 -s 4 -d 2 -p cbr -e 1000 -c 1 -i 26 -a 1 -x {1.0 2.0 16 ------- null}
r -t 1.16416 -s 4 -d 0 -p ack -e 40 -c 2 -i 29 -a 2 -x {3.0 0.0 4 ------- null}
+ -t 1.16416 -s 0 -d 4 -p tcp -e 1040 -c 2 -i 37 -a 2 -x {0.0 3.0 9 ------- null}
+ -t 1.16416 -s 0 -d 4 -p tcp -e 1040 -c 2 -i 38 -a 2 -x {0.0 3.0 10 ------- null}
- -t 1.16416 -s 0 -d 4 -p tcp -e 1040 -c 2 -i 34 -a 2 -x {0.0 3.0 8 ------- null}
h -t 1.16416 -s 0 -d 4 -p tcp -e 1040 -c 2 -i 34 -a 2 -x {0.0 3.0 -1 ------- null}
+ -t 1.168 -s 1 -d 4 -p cbr -e 1000 -c 1 -i 39 -a 1 -x {1.0 2.0 21 ------- null}
- -t 1.168 -s 1 -d 4 -p cbr -e 1000 -c 1 -i 39 -a 1 -x {1.0 2.0 21 ------- null}
h -t 1.168 -s 1 -d 4 -p cbr -e 1000 -c 1 -i 39 -a 1 -x {1.0 2.0 -1 ------- null}
r -t 1.17 -s 1 -d 4 -p cbr -e 1000 -c 1 -i 32 -a 1 -x {1.0 2.0 19 ------- null}
+ -t 1.17 -s 4 -d 2 -p cbr -e 1000 -c 1 -i 32 -a 1 -x {1.0 2.0 19 ------- null}
- -t 1.17 -s 4 -d 2 -p cbr -e 1000 -c 1 -i 32 -a 1 -x {1.0 2.0 19 ------- null}
h -t 1.17 -s 4 -d 2 -p cbr -e 1000 -c 1 -i 32 -a 1 -x {1.0 2.0 -1 ------- null}
r -t 1.17048 -s 3 -d 4 -p ack -e 40 -c 2 -i 36 -a 2 -x {3.0 0.0 6 ------- null}
+ -t 1.17048 -s 4 -d 0 -p ack -e 40 -c 2 -i 36 -a 2 -x {3.0 0.0 6 ------- null}
- -t 1.17048 -s 4 -d 0 -p ack -e 40 -c 2 -i 36 -a 2 -x {3.0 0.0 6 ------- null}
h -t 1.17048 -s 4 -d 0 -p ack -e 40 -c 2 -i 36 -a 2 -x {3.0 0.0 -1 ------- null}
r -t 1.172 -s 4 -d 2 -p cbr -e 1000 -c 1 -i 28 -a 1 -x {1.0 2.0 17 ------- null}
r -t 1.17248 -s 4 -d 0 -p ack -e 40 -c 2 -i 31 -a 2 -x {3.0 0.0 5 ------- null}
+ -t 1.17248 -s 0 -d 4 -p tcp -e 1040 -c 2 -i 40 -a 2 -x {0.0 3.0 11 ------- null}
+ -t 1.17248 -s 0 -d 4 -p tcp -e 1040 -c 2 -i 41 -a 2 -x {0.0 3.0 12 ------- null}
- -t 1.17248 -s 0 -d 4 -p tcp -e 1040 -c 2 -i 37 -a 2 -x {0.0 3.0 9 ------- null}
h -t 1.17248 -s 0 -d 4 -p tcp -e 1040 -c 2 -i 37 -a 2 -x {0.0 3.0 -1 ------- null}
r -t 1.17416 -s 0 -d 4 -p tcp -e 1040 -c 2 -i 33 -a 2 -x {0.0 3.0 7 ------- null}
+ -t 1.17416 -s 4 -d 3 -p tcp -e 1040 -c 2 -i 33 -a 2 -x {0.0 3.0 7 ------- null}
- -t 1.17416 -s 4 -d 3 -p tcp -e 1040 -c 2 -i 33 -a 2 -x {0.0 3.0 7 ------- null}
h -t 1.17416 -s 4 -d 3 -p tcp -e 1040 -c 2 -i 33 -a 2 -x {0.0 3.0 -1 ------- null}
+ -t 1.176 -s 1 -d 4 -p cbr -e 1000 -c 1 -i 42 -a 1 -x {1.0 2.0 22 ------- null}
- -t 1.176 -s 1 -d 4 -p cbr -e 1000 -c 1 -i 42 -a 1 -x {1.0 2.0 22 ------- null}
h -t 1.176 -s 1 -d 4 -p cbr -e 1000 -c 1 -i 42 -a 1 -x {1.0 2.0 -1 ------- null}
r -t 1.178 -s 1 -d 4 -p cbr -e 1000 -c 1 -i 35 -a 1 -x {1.0 2.0 20 ------- null}
+ -t 1.178 -s 4 -d 2 -p cbr -e 1000 -c 1 -i 35 -a 1 -x {1.0 2.0 20 ------- null}
- -t 1.178 -s 4 -d 2 -p cbr -e 1000 -c 1 -i 35 -a 1 -x {1.0 2.0 20 ------- null}
h -t 1.178 -s 4 -d 2 -p cbr -e 1000 -c 1 -i 35 -a 1 -x {1.0 2.0 -1 ------- null}
r -t 1.18 -s 4 -d 2 -p cbr -e 1000 -c 1 -i 30 -a 1 -x {1.0 2.0 18 ------- null}
r -t 1.1808 -s 4 -d 0 -p ack -e 40 -c 2 -i 36 -a 2 -x {3.0 0.0 6 ------- null}
+ -t 1.1808 -s 0 -d 4 -p tcp -e 1040 -c 2 -i 43 -a 2 -x {0.0 3.0 13 ------- null}
+ -t 1.1808 -s 0 -d 4 -p tcp -e 1040 -c 2 -i 44 -a 2 -x {0.0 3.0 14 ------- null}
- -t 1.1808 -s 0 -d 4 -p tcp -e 1040 -c 2 -i 38 -a 2 -x {0.0 3.0 10 ------- null}
h -t 1.1808 -s 0 -d 4 -p tcp -e 1040 -c 2 -i 38 -a 2 -x {0.0 3.0 -1 ------- null}
r -t 1.18248 -s 0 -d 4 -p tcp -e 1040 -c 2 -i 34 -a 2 -x {0.0 3.0 8 ------- null}
+ -t 1.18248 -s 4 -d 3 -p tcp -e 1040 -c 2 -i 34 -a 2 -x {0.0 3.0 8 ------- null}
- -t 1.18248 -s 4 -d 3 -p tcp -e 1040 -c 2 -i 34 -a 2 -x {0.0 3.0 8 ------- null}
h -t 1.18248 -s 4 -d 3 -p tcp -e 1040 -c 2 -i 34 -a 2 -x {0.0 3.0 -1 ------- null}
+ -t 1.184 -s 1 -d 4 -p cbr -e 1000 -c 1 -i 45 -a 1 -x {1.0 2.0 23 ------- null}
- -t 1.184 -s 1 -d 4 -p cbr -e 1000 -c 1 -i 45 -a 1 -x {1.0 2.0 23 ------- null}
h -t 1.184 -s 1 -d 4 -p cbr -e 1000 -c 1 -i 45 -a 1 -x {1.0 2.0 -1 ------- null}
r -t 1.186 -s 1 -d 4 -p cbr -e 1000 -c 1 -i 39 -a 1 -x {1.0 2.0 21 ------- null}
+ -t 1.186 -s 4 -d 2 -p cbr -e 1000 -c 1 -i 39 -a 1 -x {1.0 2.0 21 ------- null}
- -t 1.186 -s 4 -d 2 -p cbr -e 1000 -c 1 -i 39 -a 1 -x {1.0 2.0 21 ------- null}
h -t 1.186 -s 4 -d 2 -p cbr -e 1000 -c 1 -i 39 -a 1 -x {1.0 2.0 -1 ------- null}
r -t 1.188 -s 4 -d 2 -p cbr -e 1000 -c 1 -i 32 -a 1 -x {1.0 2.0 19 ------- null}
- -t 1.18912 -s 0 -d 4 -p tcp -e 1040 -c 2 -i 40 -a 2 -x {0.0 3.0 11 ------- null}
h -t 1.18912 -s 0 -d 4 -p tcp -e 1040 -c 2 -i 40 -a 2 -x {0.0 3.0 -1 ------- null}
r -t 1.1908 -s 0 -d 4 -p tcp -e 1040 -c 2 -i 37 -a 2 -x {0.0 3.0 9 ------- null}
+ -t 1.1908 -s 4 -d 3 -p tcp -e 1040 -c 2 -i 37 -a 2 -x {0.0 3.0 9 ------- null}
- -t 1.1908 -s 4 -d 3 -p tcp -e 1040 -c 2 -i 37 -a 2 -x {0.0 3.0 9 ------- null}
h -t 1.1908 -s 4 -d 3 -p tcp -e 1040 -c 2 -i 37 -a 2 -x {0.0 3.0 -1 ------- null}
+ -t 1.192 -s 1 -d 4 -p cbr -e 1000 -c 1 -i 46 -a 1 -x {1.0 2.0 24 ------- null}
- -t 1.192 -s 1 -d 4 -p cbr -e 1000 -c 1 -i 46 -a 1 -x {1.0 2.0 24 ------- null}
h -t 1.192 -s 1 -d 4 -p cbr -e 1000 -c 1 -i 46 -a 1 -x {1.0 2.0 -1 ------- null}
r -t 1.19248 -s 4 -d 3 -p tcp -e 1040 -c 2 -i 33 -a 2 -x {0.0 3.0 7 ------- null}
+ -t 1.19248 -s 3 -d 4 -p ack -e 40 -c 2 -i 47 -a 2 -x {3.0 0.0 7 ------- null}
- -t 1.19248 -s 3 -d 4 -p ack -e 40 -c 2 -i 47 -a 2 -x {3.0 0.0 7 ------- null}
h -t 1.19248 -s 3 -d 4 -p ack -e 40 -c 2 -i 47 -a 2 -x {3.0 0.0 -1 ------- null}
r -t 1.194 -s 1 -d 4 -p cbr -e 1000 -c 1 -i 42 -a 1 -x {1.0 2.0 22 ------- null}
+ -t 1.194 -s 4 -d 2 -p cbr -e 1000 -c 1 -i 42 -a 1 -x {1.0 2.0 22 ------- null}
- -t 1.194 -s 4 -d 2 -p cbr -e 1000 -c 1 -i 42 -a 1 -x {1.0 2.0 22 ------- null}
h -t 1.194 -s 4 -d 2 -p cbr -e 1000 -c 1 -i 42 -a 1 -x {1.0 2.0 -1 ------- null}
r -t 1.196 -s 4 -d 2 -p cbr -e 1000 -c 1 -i 35 -a 1 -x {1.0 2.0 20 ------- null}
- -t 1.19744 -s 0 -d 4 -p tcp -e 1040 -c 2 -i 41 -a 2 -x {0.0 3.0 12 ------- null}
h -t 1.19744 -s 0 -d 4 -p tcp -e 1040 -c 2 -i 41 -a 2 -x {0.0 3.0 -1 ------- null}
r -t 1.19912 -s 0 -d 4 -p tcp -e 1040 -c 2 -i 38 -a 2 -x {0.0 3.0 10 ------- null}
+ -t 1.19912 -s 4 -d 3 -p tcp -e 1040 -c 2 -i 38 -a 2 -x {0.0 3.0 10 ------- null}
- -t 1.19912 -s 4 -d 3 -p tcp -e 1040 -c 2 -i 38 -a 2 -x {0.0 3.0 10 ------- null}
h -t 1.19912 -s 4 -d 3 -p tcp -e 1040 -c 2 -i 38 -a 2 -x {0.0 3.0 -1 ------- null}
+ -t 1.2 -s 1 -d 4 -p cbr -e 1000 -c 1 -i 48 -a 1 -x {1.0 2.0 25 ------- null}
- -t 1.2 -s 1 -d 4 -p cbr -e 1000 -c 1 -i 48 -a 1 -x {1.0 2.0 25 ------- null}
h -t 1.2 -s 1 -d 4 -p cbr -e 1000 -c 1 -i 48 -a 1 -x {1.0 2.0 -1 ------- null}
r -t 1.2008 -s 4 -d 3 -p tcp -e 1040 -c 2 -i 34 -a 2 -x {0.0 3.0 8 ------- null}
+ -t 1.2008 -s 3 -d 4 -p ack -e 40 -c 2 -i 49 -a 2 -x {3.0 0.0 8 ------- null}
- -t 1.2008 -s 3 -d 4 -p ack -e 40 -c 2 -i 49 -a 2 -x {3.0 0.0 8 ------- null}
h -t 1.2008 -s 3 -d 4 -p ack -e 40 -c 2 -i 49 -a 2 -x {3.0 0.0 -1 ------- null}
r -t 1.202 -s 1 -d 4 -p cbr -e 1000 -c 1 -i 45 -a 1 -x {1.0 2.0 23 ------- null}
+ -t 1.202 -s 4 -d 2 -p cbr -e 1000 -c 1 -i 45 -a 1 -x {1.0 2.0 23 ------- null}
- -t 1.202 -s 4 -d 2 -p cbr -e 1000 -c 1 -i 45 -a 1 -x {1.0 2.0 23 ------- null}
h -t 1.202 -s 4 -d 2 -p cbr -e 1000 -c 1 -i 45 -a 1 -x {1.0 2.0 -1 ------- null}
r -t 1.2028 -s 3 -d 4 -p ack -e 40 -c 2 -i 47 -a 2 -x {3.0 0.0 7 ------- null}
+ -t 1.2028 -s 4 -d 0 -p ack -e 40 -c 2 -i 47 -a 2 -x {3.0 0.0 7 ------- null}
- -t 1.2028 -s 4 -d 0 -p ack -e 40 -c 2 -i 47 -a 2 -x {3.0 0.0 7 ------- null}
h -t 1.2028 -s 4 -d 0 -p ack -e 40 -c 2 -i 47 -a 2 -x {3.0 0.0 -1 ------- null}
r -t 1.204 -s 4 -d 2 -p cbr -e 1000 -c 1 -i 39 -a 1 -x {1.0 2.0 21 ------- null}
- -t 1.20576 -s 0 -d 4 -p tcp -e 1040 -c 2 -i 43 -a 2 -x {0.0 3.0 13 ------- null}
h -t 1.20576 -s 0 -d 4 -p tcp -e 1040 -c 2 -i 43 -a 2 -x {0.0 3.0 -1 ------- null}
r -t 1.20744 -s 0 -d 4 -p tcp -e 1040 -c 2 -i 40 -a 2 -x {0.0 3.0 11 ------- null}
+ -t 1.20744 -s 4 -d 3 -p tcp -e 1040 -c 2 -i 40 -a 2 -x {0.0 3.0 11 ------- null}
- -t 1.20744 -s 4 -d 3 -p tcp -e 1040 -c 2 -i 40 -a 2 -x {0.0 3.0 11 ------- null}
h -t 1.20744 -s 4 -d 3 -p tcp -e 1040 -c 2 -i 40 -a 2 -x {0.0 3.0 -1 ------- null}
+ -t 1.208 -s 1 -d 4 -p cbr -e 1000 -c 1 -i 50 -a 1 -x {1.0 2.0 26 ------- null}
- -t 1.208 -s 1 -d 4 -p cbr -e 1000 -c 1 -i 50 -a 1 -x {1.0 2.0 26 ------- null}