+ 1 0 4 tcp 40 ------- 2 0.0 3.0 0 0
- 1 0 4 tcp 40 ------- 2 0.0 3.0 0 0
+ 1 1 4 cbr 1000 ------- 1 1.0 2.0 0 1
- 1 1 4 cbr 1000 ------- 1 1.0 2.0 0 1
+ 1.008 1 4 cbr 1000 ------- 1 1.0 2.0 1 2
- 1.008 1 4 cbr 1000 ------- 1 1.0 2.0 1 2
r 1.01032 0 4 tcp 40 ------- 2 0.0 3.0 0 0
+ 1.01032 4 3 tcp 40 ------- 2 0.0 3.0 0 0
- 1.01032 4 3 tcp 40 ------- 2 0.0 3.0 0 0
+ 1.016 1 4 cbr 1000 ------- 1 1.0 2.0 2 3
- 1.016 1 4 cbr 1000 ------- 1 1.0 2.0 2 3
r 1.018 1 4 cbr 1000 ------- 1 1.0 2.0 0 1
+ 1.018 4 2 cbr 1000 ------- 1 1.0 2.0 0 1
- 1.018 4 2 cbr 1000 ------- 1 1.0 2.0 0 1
r 1.02064 4 3 tcp 40 ------- 2 0.0 3.0 0 0
+ 1.02064 3 4 ack 40 ------- 2 3.0 0.0 0 4
- 1.02064 3 4 ack 40 ------- 2 3.0 0.0 0 4
+ 1.024 1 4 cbr 1000 ------- 1 1.0 2.0 3 5
- 1.024 1 4 cbr 1000 ------- 1 1.0 2.0 3 5
r 1.026 1 4 cbr 1000 ------- 1 1.0 2.0 1 2
+ 1.026 4 2 cbr 1000 ------- 1 1.0 2.0 1 2
- 1.026 4 2 cbr 1000 ------- 1 1.0 2.0 1 2
r 1.03096 3 4 ack 40 ------- 2 3.0 0.0 0 4
+ 1.03096 4 0 ack 40 ------- 2 3.0 0.0 0 4
- 1.03096 4 0 ack 40 ------- 2 3.0 0.0 0 4
+ 1.032 1 4 cbr 1000 ------- 1 1.0 2.0 4 6
- 1.032 1 4 cbr 1000 ------- 1 1.0 2.0 4 6
r 1.034 1 4 cbr 1000 ------- 1 1.0 2.0 2 3
+ 1.034 4 2 cbr 1000 ------- 1 1.0 2.0 2 3
- 1.034 4 2 cbr 1000 ------- 1 1.0 2.0 2 3
r 1.036 4 2 cbr 1000 ------- 1 1.0 2.0 0 1
+ 1.04 1 4 cbr 1000 ------- 1 1.0 2.0 5 7
- 1.04 1 4 cbr 1000 ------- 1 1.0 2.0 5 7
r 1.04128 4 0 ack 40 ------- 2 3.0 0.0 0 4
+ 1.04128 0 4 tcp 1040 ------- 2 0.0 3.0 1 8
- 1.04128 0 4 tcp 1040 ------- 2 0.0 3.0 1 8
+ 1.04128 0 4 tcp 1040 ------- 2 0.0 3.0 2 9
r 1.042 1 4 cbr 1000 ------- 1 1.0 2.0 3 5
+ 1.042 4 2 cbr 1000 ------- 1 1.0 2.0 3 5
- 1.042 4 2 cbr 1000 ------- 1 1.0 2.0 3 5
r 1.044 4 2 cbr 1000 ------- 1 1.0 2.0 1 2
+ 1.048 1 4 cbr 1000 ------- 1 1.0 2.0 6 10
- 1.048 1 4 cbr 1000 ------- 1 1.0 2.0 6 10
- 1.0496 0 4 tcp 1040 ------- 2 0.0 3.0 2 9
r 1.05 1 4 cbr 1000 ------- 1 1.0 2.0 4 6
+ 1.05 4 2 cbr 1000 ------- 1 1.0 2.0 4 6
- 1.05 4 2 cbr 1000 ------- 1 1.0 2.0 4 6
r 1.052 4 2 cbr 1000 ------- 1 1.0 2.0 2 3
+ 1.056 1 4 cbr 1000 ------- 1 1.0 2.0 7 11
- 1.056 1 4 cbr 1000 ------- 1 1.0 2.0 7 11
r 1.058 1 4 cbr 1000 ------- 1 1.0 2.0 5 7
+ 1.058 4 2 cbr 1000 ------- 1 1.0 2.0 5 7
- 1.058 4 2 cbr 1000 ------- 1 1.0 2.0 5 7
r 1.0596 0 4 tcp 1040 ------- 2 0.0 3.0 1 8
+ 1.0596 4 3 tcp 1040 ------- 2 0.0 3.0 1 8
- 1.0596 4 3 tcp 1040 ------- 2 0.0 3.0 1 8
r 1.06 4 2 cbr 1000 ------- 1 1.0 2.0 3 5
+ 1.064 1 4 cbr 1000 ------- 1 1.0 2.0 8 12
- 1.064 1 4 cbr 1000 ------- 1 1.0 2.0 8 12
r 1.066 1 4 cbr 1000 ------- 1 1.0 2.0 6 10
+ 1.066 4 2 cbr 1000 ------- 1 1.0 2.0 6 10
- 1.066 4 2 cbr 1000 ------- 1 1.0 2.0 6 10
r 1.06792 0 4 tcp 1040 ------- 2 0.0 3.0 2 9
+ 1.06792 4 3 tcp 1040 ------- 2 0.0 3.0 2 9
- 1.06792 4 3 tcp 1040 ------- 2 0.0 3.0 2 9
r 1.068 4 2 cbr 1000 ------- 1 1.0 2.0 4 6
+ 1.072 1 4 cbr 1000 ------- 1 1.0 2.0 9 13
- 1.072 1 4 cbr 1000 ------- 1 1.0 2.0 9 13
r 1.074 1 4 cbr 1000 ------- 1 1.0 2.0 7 11
+ 1.074 4 2 cbr 1000 ------- 1 1.0 2.0 7 11
- 1.074 4 2 cbr 1000 ------- 1 1.0 2.0 7 11
r 1.076 4 2 cbr 1000 ------- 1 1.0 2.0 5 7
r 1.07792 4 3 tcp 1040 ------- 2 0.0 3.0 1 8
+ 1.07792 3 4 ack 40 ------- 2 3.0 0.0 1 14
- 1.07792 3 4 ack 40 ------- 2 3.0 0.0 1 14
+ 1.08 1 4 cbr 1000 ------- 1 1.0 2.0 10 15
- 1.08 1 4 cbr 1000 ------- 1 1.0 2.0 10 15
r 1.082 1 4 cbr 1000 ------- 1 1.0 2.0 8 12
+ 1.082 4 2 cbr 1000 ------- 1 1.0 2.0 8 12
- 1.082 4 2 cbr 1000 ------- 1 1.0 2.0 8 12
r 1.084 4 2 cbr 1000 ------- 1 1.0 2.0 6 10
r 1.08624 4 3 tcp 1040 ------- 2 0.0 3.0 2 9
+ 1.08624 3 4 ack 40 ------- 2 3.0 0.0 2 16
- 1.08624 3 4 ack 40 ------- 2 3.0 0.0 2 16
+ 1.088 1 4 cbr 1000 ------- 1 1.0 2.0 11 17
- 1.088 1 4 cbr 1000 ------- 1 1.0 2.0 11 17
r 1.08824 3 4 ack 40 ------- 2 3.0 0.0 1 14
+ 1.08824 4 0 ack 40 ------- 2 3.0 0.0 1 14
- 1.08824 4 0 ack 40 ------- 2 3.0 0.0 1 14
r 1.09 1 4 cbr 1000 ------- 1 1.0 2.0 9 13
+ 1.09 4 2 cbr 1000 ------- 1 1.0 2.0 9 13
- 1.09 4 2 cbr 1000 ------- 1 1.0 2.0 9 13
r 1.092 4 2 cbr 1000 ------- 1 1.0 2.0 7 11
+ 1.096 1 4 cbr 1000 ------- 1 1.0 2.0 12 18
- 1.096 1 4 cbr 1000 ------- 1 1.0 2.0 12 18
r 1.09656 3 4 ack 40 ------- 2 3.0 0.0 2 16
+ 1.09656 4 0 ack 40 ------- 2 3.0 0.0 2 16
- 1.09656 4 0 ack 40 ------- 2 3.0 0.0 2 16
r 1.098 1 4 cbr 1000 ------- 1 1.0 2.0 10 15
+ 1.098 4 2 cbr 1000 ------- 1 1.0 2.0 10 15
- 1.098 4 2 cbr 1000 ------- 1 1.0 2.0 10 15
r 1.09856 4 0 ack 40 ------- 2 3.0 0.0 1 14
+ 1.09856 0 4 tcp 1040 ------- 2 0.0 3.0 3 19
- 1.09856 0 4 tcp 1040 ------- 2 0.0 3.0 3 19
+ 1.09856 0 4 tcp 1040 ------- 2 0.0 3.0 4 20
r 1.1 4 2 cbr 1000 ------- 1 1.0 2.0 8 12
+ 1.104 1 4 cbr 1000 ------- 1 1.0 2.0 13 21
- 1.104 1 4 cbr 1000 ------- 1 1.0 2.0 13 21
r 1.106 1 4 cbr 1000 ------- 1 1.0 2.0 11 17
+ 1.106 4 2 cbr 1000 ------- 1 1.0 2.0 11 17
- 1.106 4 2 cbr 1000 ------- 1 1.0 2.0 11 17
r 1.10688 4 0 ack 40 ------- 2 3.0 0.0 2 16
+ 1.10688 0 4 tcp 1040 ------- 2 0.0 3.0 5 22
+ 1.10688 0 4 tcp 1040 ------- 2 0.0 3.0 6 23
- 1.10688 0 4 tcp 1040 ------- 2 0.0 3.0 4 20
r 1.108 4 2 cbr 1000 ------- 1 1.0 2.0 9 13
+ 1.112 1 4 cbr 1000 ------- 1 1.0 2.0 14 24
- 1.112 1 4 cbr 1000 ------- 1 1.0 2.0 14 24
r 1.114 1 4 cbr 1000 ------- 1 1.0 2.0 12 18
+ 1.114 4 2 cbr 1000 ------- 1 1.0 2.0 12 18
- 1.114 4 2 cbr 1000 ------- 1 1.0 2.0 12 18
- 1.1152 0 4 tcp 1040 ------- 2 0.0 3.0 5 22
r 1.116 4 2 cbr 1000 ------- 1 1.0 2.0 10 15
r 1.11688 0 4 tcp 1040 ------- 2 0.0 3.0 3 19
+ 1.11688 4 3 tcp 1040 ------- 2 0.0 3.0 3 19
- 1.11688 4 3 tcp 1040 ------- 2 0.0 3.0 3 19
+ 1.12 1 4 cbr 1000 ------- 1 1.0 2.0 15 25
- 1.12 1 4 cbr 1000 ------- 1 1.0 2.0 15 25
r 1.122 1 4 cbr 1000 ------- 1 1.0 2.0 13 21
+ 1.122 4 2 cbr 1000 ------- 1 1.0 2.0 13 21
- 1.122 4 2 cbr 1000 ------- 1 1.0 2.0 13 21
- 1.12352 0 4 tcp 1040 ------- 2 0.0 3.0 6 23
r 1.124 4 2 cbr 1000 ------- 1 1.0 2.0 11 17
r 1.1252 0 4 tcp 1040 ------- 2 0.0 3.0 4 20
+ 1.1252 4 3 tcp 1040 ------- 2 0.0 3.0 4 20
- 1.1252 4 3 tcp 1040 ------- 2 0.0 3.0 4 20
+ 1.128 1 4 cbr 1000 ------- 1 1.0 2.0 16 26
- 1.128 1 4 cbr 1000 ------- 1 1.0 2.0 16 26
r 1.13 1 4 cbr 1000 ------- 1 1.0 2.0 14 24
+ 1.13 4 2 cbr 1000 ------- 1 1.0 2.0 14 24
- 1.13 4 2 cbr 1000 ------- 1 1.0 2.0 14 24
r 1.132 4 2 cbr 1000 ------- 1 1.0 2.0 12 18
r 1.13352 0 4 tcp 1040 ------- 2 0.0 3.0 5 22
+ 1.13352 4 3 tcp 1040 ------- 2 0.0 3.0 5 22
- 1.13352 4 3 tcp 1040 ------- 2 0.0 3.0 5 22
r 1.1352 4 3 tcp 1040 ------- 2 0.0 3.0 3 19
+ 1.1352 3 4 ack 40 ------- 2 3.0 0.0 3 27
- 1.1352 3 4 ack 40 ------- 2 3.0 0.0 3 27
+ 1.136 1 4 cbr 1000 ------- 1 1.0 2.0 17 28
- 1.136 1 4 cbr 1000 ------- 1 1.0 2.0 17 28
r 1.138 1 4 cbr 1000 ------- 1 1.0 2.0 15 25
+ 1.138 4 2 cbr 1000 ------- 1 1.0 2.0 15 25
- 1.138 4 2 cbr 1000 ------- 1 1.0 2.0 15 25
r 1.14 4 2 cbr 1000 ------- 1 1.0 2.0 13 21
r 1.14184 0 4 tcp 1040 ------- 2 0.0 3.0 6 23
+ 1.14184 4 3 tcp 1040 ------- 2 0.0 3.0 6 23
- 1.14184 4 3 tcp 1040 ------- 2 0.0 3.0 6 23
r 1.14352 4 3 tcp 1040 ------- 2 0.0 3.0 4 20
+ 1.14352 3 4 ack 40 ------- 2 3.0 0.0 4 29
- 1.14352 3 4 ack 40 ------- 2 3.0 0.0 4 29
+ 1.144 1 4 cbr 1000 ------- 1 1.0 2.0 18 30
- 1.144 1 4 cbr 1000 ------- 1 1.0 2.0 18 30
r 1.14552 3 4 ack 40 ------- 2 3.0 0.0 3 27
+ 1.14552 4 0 ack 40 ------- 2 3.0 0.0 3 27
- 1.14552 4 0 ack 40 ------- 2 3.0 0.0 3 27
r 1.146 1 4 cbr 1000 ------- 1 1.0 2.0 16 26
+ 1.146 4 2 cbr 1000 ------- 1 1.0 2.0 16 26
- 1.146 4 2 cbr 1000 ------- 1 1.0 2.0 16 26
r 1.148 4 2 cbr 1000 ------- 1 1.0 2.0 14 24
r 1.15184 4 3 tcp 1040 ------- 2 0.0 3.0 5 22
+ 1.15184 3 4 ack 40 ------- 2 3.0 0.0 5 31
- 1.15184 3 4 ack 40 ------- 2 3.0 0.0 5 31
+ 1.152 1 4 cbr 1000 ------- 1 1.0 2.0 19 32
- 1.152 1 4 cbr 1000 ------- 1 1.0 2.0 19 32
r 1.15384 3 4 ack 40 ------- 2 3.0 0.0 4 29
+ 1.15384 4 0 ack 40 ------- 2 3.0 0.0 4 29
- 1.15384 4 0 ack 40 ------- 2 3.0 0.0 4 29
r 1.154 1 4 cbr 1000 ------- 1 1.0 2.0 17 28
+ 1.154 4 2 cbr 1000 ------- 1 1.0 2.0 17 28
- 1.154 4 2 cbr 1000 ------- 1 1.0 2.0 17 28
r 1.15584 4 0 ack 40 ------- 2 3.0 0.0 3 27
+ 1.15584 0 4 tcp 1040 ------- 2 0.0 3.0 7 33
- 1.15584 0 4 tcp 1040 ------- 2 0.0 3.0 7 33
+ 1.15584 0 4 tcp 1040 ------- 2 0.0 3.0 8 34
r 1.156 4 2 cbr 1000 ------- 1 1.0 2.0 15 25
+ 1.16 1 4 cbr 1000 ------- 1 1.0 2.0 20 35
- 1.16 1 4 cbr 1000 ------- 1 1.0 2.0 20 35
r 1.16016 4 3 tcp 1040 ------- 2 0.0 3.0 6 23
+ 1.16016 3 4 ack 40 ------- 2 3.0 0.0 6 36
- 1.16016 3 4 ack 40 ------- 2 3.0 0.0 6 36
r 1.162 1 4 cbr 1000 ------- 1 1.0 2.0 18 30
+ 1.162 4 2 cbr 1000 ------- 1 1.0 2.0 18 30
- 1.162 4 2 cbr 1000 ------- 1 1.0 2.0 18 30
r 1.16216 3 4 ack 40 ------- 2 3.0 0.0 5 31
+ 1.16216 4 0 ack 40 ------- 2 3.0 0.0 5 31
- 1.16216 4 0 ack 40 ------- 2 3.0 0.0 5 31
r 1.164 4 2 cbr 1000 ------- 1 1.0 2.0 16 26
r 1.16416 4 0 ack 40 ------- 2 3.0 0.0 4 29
+ 1.16416 0 4 tcp 1040 ------- 2 0.0 3.0 9 37
+ 1.16416 0 4 tcp 1040 ------- 2 0.0 3.0 10 38
- 1.16416 0 4 tcp 1040 ------- 2 0.0 3.0 8 34
+ 1.168 1 4 cbr 1000 ------- 1 1.0 2.0 21 39
- 1.168 1 4 cbr 1000 ------- 1 1.0 2.0 21 39
r 1.17 1 4 cbr 1000 ------- 1 1.0 2.0 19 32
+ 1.17 4 2 cbr 1000 ------- 1 1.0 2.0 19 32
- 1.17 4 2 cbr 1000 ------- 1 1.0 2.0 19 32
r 1.17048 3 4 ack 40 ------- 2 3.0 0.0 6 36
+ 1.17048 4 0 ack 40 ------- 2 3.0 0.0 6 36
- 1.17048 4 0 ack 40 ------- 2 3.0 0.0 6 36
r 1.172 4 2 cbr 1000 ------- 1 1.0 2.0 17 28
r 1.17248 4 0 ack 40 ------- 2 3.0 0.0 5 31
+ 1.17248 0 4 tcp 1040 ------- 2 0.0 3.0 11 40
+ 1.17248 0 4 tcp 1040 ------- 2 0.0 3.0 12 41
- 1.17248 0 4 tcp 1040 ------- 2 0.0 3.0 9 37
r 1.17416 0 4 tcp 1040 ------- 2 0.0 3.0 7 33
+ 1.17416 4 3 tcp 1040 ------- 2 0.0 3.0 7 33
- 1.17416 4 3 tcp 1040 ------- 2 0.0 3.0 7 33
+ 1.176 1 4 cbr 1000 ------- 1 1.0 2.0 22 42
- 1.176 1 4 cbr 1000 ------- 1 1.0 2.0 22 42
r 1.178 1 4 cbr 1000 ------- 1 1.0 2.0 20 35
+ 1.178 4 2 cbr 1000 ------- 1 1.0 2.0 20 35
- 1.178 4 2 cbr 1000 ------- 1 1.0 2.0 20 35
r 1.18 4 2 cbr 1000 ------- 1 1.0 2.0 18 30
r 1.1808 4 0 ack 40 ------- 2 3.0 0.0 6 36
+ 1.1808 0 4 tcp 1040 ------- 2 0.0 3.0 13 43
+ 1.1808 0 4 tcp 1040 ------- 2 0.0 3.0 14 44
- 1.1808 0 4 tcp 1040 ------- 2 0.0 3.0 10 38
r 1.18248 0 4 tcp 1040 ------- 2 0.0 3.0 8 34
+ 1.18248 4 3 tcp 1040 ------- 2 0.0 3.0 8 34
- 1.18248 4 3 tcp 1040 ------- 2 0.0 3.0 8 34
+ 1.184 1 4 cbr 1000 ------- 1 1.0 2.0 23 45
- 1.184 1 4 cbr 1000 ------- 1 1.0 2.0 23 45
r 1.186 1 4 cbr 1000 ------- 1 1.0 2.0 21 39
+ 1.186 4 2 cbr 1000 ------- 1 1.0 2.0 21 39
- 1.186 4 2 cbr 1000 ------- 1 1.0 2.0 21 39
r 1.188 4 2 cbr 1000 ------- 1 1.0 2.0 19 32
- 1.18912 0 4 tcp 1040 ------- 2 0.0 3.0 11 40
r 1.1908 0 4 tcp 1040 ------- 2 0.0 3.0 9 37
+ 1.1908 4 3 tcp 1040 ------- 2 0.0 3.0 9 37
- 1.1908 4 3 tcp 1040 ------- 2 0.0 3.0 9 37
+ 1.192 1 4 cbr 1000 ------- 1 1.0 2.0 24 46
- 1.192 1 4 cbr 1000 ------- 1 1.0 2.0 24 46
r 1.19248 4 3 tcp 1040 ------- 2 0.0 3.0 7 33
+ 1.19248 3 4 ack 40 ------- 2 3.0 0.0 7 47
- 1.19248 3 4 ack 40 ------- 2 3.0 0.0 7 47
r 1.194 1 4 cbr 1000 ------- 1 1.0 2.0 22 42
+ 1.194 4 2 cbr 1000 ------- 1 1.0 2.0 22 42
- 1.194 4 2 cbr 1000 ------- 1 1.0 2.0 22 42
r 1.196 4 2 cbr 1000 ------- 1 1.0 2.0 20 35
- 1.19744 0 4 tcp 1040 ------- 2 0.0 3.0 12 41
r 1.19912 0 4 tcp 1040 ------- 2 0.0 3.0 10 38
+ 1.19912 4 3 tcp 1040 ------- 2 0.0 3.0 10 38
- 1.19912 4 3 tcp 1040 ------- 2 0.0 3.0 10 38
+ 1.2 1 4 cbr 1000 ------- 1 1.0 2.0 25 48
- 1.2 1 4 cbr 1000 ------- 1 1.0 2.0 25 48
r 1.2008 4 3 tcp 1040 ------- 2 0.0 3.0 8 34
+ 1.2008 3 4 ack 40 ------- 2 3.0 0.0 8 49
- 1.2008 3 4 ack 40 ------- 2 3.0 0.0 8 49
r 1.202 1 4 cbr 1000 ------- 1 1.0 2.0 23 45
+ 1.202 4 2 cbr 1000 ------- 1 1.0 2.0 23 45
- 1.202 4 2 cbr 1000 ------- 1 1.0 2.0 23 45
r 1.2028 3 4 ack 40 ------- 2 3.0 0.0 7 47
+ 1.2028 4 0 ack 40 ------- 2 3.0 0.0 7 47
- 1.2028 4 0 ack 40 ------- 2 3.0 0.0 7 47
r 1.204 4 2 cbr 1000 ------- 1 1.0 2.0 21 39
- 1.20576 0 4 tcp 1040 ------- 2 0.0 3.0 13 43
r 1.20744 0 4 tcp 1040 ------- 2 0.0 3.0 11 40
+ 1.20744 4 3 tcp 1040 ------- 2 0.0 3.0 11 40
- 1.20744 4 3 tcp 1040 ------- 2 0.0 3.0 11 40
+ 1.208 1 4 cbr 1000 ------- 1 1.0 2.0 26 50
- 1.208 1 4 cbr 1000 ------- 1 1.0 2.0 26 50
r 1.20912 4 3 tcp 1040 ------- 2 0.0 3.0 9 37
+ 1.20912 3 4 ack 40 ------- 2 3.0 0.0 9 51
- 1.20912 3 4 ack 40 ------- 2 3.0 0.0 9 51
r 1.21 1 4 cbr 1000 ------- 1 1.0 2.0 24 46
+ 1.21 4 2 cbr 1000 ------- 1 1.0 2.0 24 46
- 1.21 4 2 cbr 1000 ------- 1 1.0 2.0 24 46
r 1.21112 3 4 ack 40 ------- 2 3.0 0.0 8 49
+ 1.21112 4 0 ack 40 ------- 2 3.0 0.0 8 49
- 1.21112 4 0 ack 40 ------- 2 3.0 0.0 8 49
r 1.212 4 2 cbr 1000 ------- 1 1.0 2.0 22 42
r 1.21312 4 0 ack 40 ------- 2 3.0 0.0 7 47
+ 1.21312 0 4 tcp 1040 ------- 2 0.0 3.0 15 52
+ 1.21312 0 4 tcp 1040 ------- 2 0.0 3.0 16 53
- 1.21408 0 4 tcp 1040 ------- 2 0.0 3.0 14 44
r 1.21576 0 4 tcp 1040 ------- 2 0.0 3.0 12 41
+ 1.21576 4 3 tcp 1040 ------- 2 0.0 3.0 12 41
- 1.21576 4 3 tcp 1040 ------- 2 0.0 3.0 12 41
+ 1.216 1 4 cbr 1000 ------- 1 1.0 2.0 27 54
- 1.216 1 4 cbr 1000 ------- 1 1.0 2.0 27 54
r 1.21744 4 3 tcp 1040 ------- 2 0.0 3.0 10 38
+ 1.21744 3 4 ack 40 ------- 2 3.0 0.0 10 55
- 1.21744 3 4 ack 40 ------- 2 3.0 0.0 10 55
r 1.218 1 4 cbr 1000 ------- 1 1.0 2.0 25 48
+ 1.218 4 2 cbr 1000 ------- 1 1.0 2.0 25 48
- 1.218 4 2 cbr 1000 ------- 1 1.0 2.0 25 48
r 1.21944 3 4 ack 40 ------- 2 3.0 0.0 9 51
+ 1.21944 4 0 ack 40 ------- 2 3.0 0.0 9 51
- 1.21944 4 0 ack 40 ------- 2 3.0 0.0 9 51
r 1.22 4 2 cbr 1000 ------- 1 1.0 2.0 23 45
r 1.22144 4 0 ack 40 ------- 2 3.0 0.0 8 49
+ 1.22144 0 4 tcp 1040 ------- 2 0.0 3.0 17 56
+ 1.22144 0 4 tcp 1040 ------- 2 0.0 3.0 18 57
- 1.2224 0 4 tcp 1040 ------- 2 0.0 3.0 15 52
+ 1.224 1 4 cbr 1000 ------- 1 1.0 2.0 28 58
- 1.224 1 4 cbr 1000 ------- 1 1.0 2.0 28 58
r 1.22408 0 4 tcp 1040 ------- 2 0.0 3.0 13 43
+ 1.22408 4 3 tcp 1040 ------- 2 0.0 3.0 13 43
- 1.22408 4 3 tcp 1040 ------- 2 0.0 3.0 13 43
r 1.22576 4 3 tcp 1040 ------- 2 0.0 3.0 11 40
+ 1.22576 3 4 ack 40 ------- 2 3.0 0.0 11 59
- 1.22576 3 4 ack 40 ------- 2 3.0 0.0 11 59
r 1.226 1 4 cbr 1000 ------- 1 1.0 2.0 26 50
+ 1.226 4 2 cbr 1000 ------- 1 1.0 2.0 26 50
- 1.226 4 2 cbr 1000 ------- 1 1.0 2.0 26 50
r 1.22776 3 4 ack 40 ------- 2 3.0 0.0 10 55
+ 1.22776 4 0 ack 40 ------- 2 3.0 0.0 10 55
- 1.22776 4 0 ack 40 ------- 2 3.0 0.0 10 55
r 1.228 4 2 cbr 1000 ------- 1 1.0 2.0 24 46
r 1.22976 4 0 ack 40 ------- 2 3.0 0.0 9 51
+ 1.22976 0 4 tcp 1040 ------- 2 0.0 3.0 19 60
+ 1.22976 0 4 tcp 1040 ------- 2 0.0 3.0 20 61
- 1.23072 0 4 tcp 1040 ------- 2 0.0 3.0 16 53
+ 1.232 1 4 cbr 1000 ------- 1 1.0 2.0 29 62
- 1.232 1 4 cbr 1000 ------- 1 1.0 2.0 29 62
r 1.2324 0 4 tcp 1040 ------- 2 0.0 3.0 14 44
+ 1.2324 4 3 tcp 1040 ------- 2 0.0 3.0 14 44
- 1.2324 4 3 tcp 1040 ------- 2 0.0 3.0 14 44
r 1.234 1 4 cbr 1000 ------- 1 1.0 2.0 27 54
+ 1.234 4 2 cbr 1000 ------- 1 1.0 2.0 27 54
- 1.234 4 2 cbr 1000 ------- 1 1.0 2.0 27 54
r 1.23408 4 3 tcp 1040 ------- 2 0.0 3.0 12 41
+ 1.23408 3 4 ack 40 ------- 2 3.0 0.0 12 63
- 1.23408 3 4 ack 40 ------- 2 3.0 0.0 12 63
r 1.236 4 2 cbr 1000 ------- 1 1.0 2.0 25 48
r 1.23608 3 4 ack 40 ------- 2 3.0 0.0 11 59
+ 1.23608 4 0 ack 40 ------- 2 3.0 0.0 11 59
- 1.23608 4 0 ack 40 ------- 2 3.0 0.0 11 59
r 1.23808 4 0 ack 40 ------- 2 3.0 0.0 10 55
+ 1.23808 0 4 tcp 1040 ------- 2 0.0 3.0 21 64
+ 1.23808 0 4 tcp 1040 ------- 2 0.0 3.0 22 65
- 1.23904 0 4 tcp 1040 ------- 2 0.0 3.0 17 56
+ 1.24 1 4 cbr 1000 ------- 1 1.0 2.0 30 66
- 1.24 1 4 cbr 1000 ------- 1 1.0 2.0 30 66
r 1.24072 0 4 tcp 1040 ------- 2 0.0 3.0 15 52
+ 1.24072 4 3 tcp 1040 ------- 2 0.0 3.0 15 52
- 1.24072 4 3 tcp 1040 ------- 2 0.0 3.0 15 52
r 1.242 1 4 cbr 1000 ------- 1 1.0 2.0 28 58
+ 1.242 4 2 cbr 1000 ------- 1 1.0 2.0 28 58
- 1.242 4 2 cbr 1000 ------- 1 1.0 2.0 28 58
r 1.2424 4 3 tcp 1040 ------- 2 0.0 3.0 13 43
+ 1.2424 3 4 ack 40 ------- 2 3.0 0.0 13 67
- 1.2424 3 4 ack 40 ------- 2 3.0 0.0 13 67
r 1.244 4 2 cbr 1000 ------- 1 1.0 2.0 26 50
r 1.2444 3 4 ack 40 ------- 2 3.0 0.0 12 63
+ 1.2444 4 0 ack 40 ------- 2 3.0 0.0 12 63
- 1.2444 4 0 ack 40 ------- 2 3.0 0.0 12 63
r 1.2464 4 0 ack 40 ------- 2 3.0 0.0 11 59
+ 1.2464 0 4 tcp 1040 ------- 2 0.0 3.0 23 68
+ 1.2464 0 4 tcp 1040 ------- 2 0.0 3.0 24 69
- 1.24736 0 4 tcp 1040 ------- 2 0.0 3.0 18 57
+ 1.248 1 4 cbr 1000 ------- 1 1.0 2.0 31 70
- 1.248 1 4 cbr 1000 ------- 1 1.0 2.0 31 70
r 1.24904 0 4 tcp 1040 ------- 2 0.0 3.0 16 53
+ 1.24904 4 3 tcp 1040 ------- 2 0.0 3.0 16 53
- 1.24904 4 3 tcp 1040 ------- 2 0.0 3.0 16 53
r 1.25 1 4 cbr 1000 ------- 1 1.0 2.0 29 62
+ 1.25 4 2 cbr 1000 ------- 1 1.0 2.0 29 62
- 1.25 4 2 cbr 1000 ------- 1 1.0 2.0 29 62
r 1.25072 4 3 tcp 1040 ------- 2 0.0 3.0 14 44
+ 1.25072 3 4 ack 40 ------- 2 3.0 0.0 14 71
- 1.25072 3 4 ack 40 ------- 2 3.0 0.0 14 71
r 1.252 4 2 cbr 1000 ------- 1 1.0 2.0 27 54
r 1.25272 3 4 ack 40 ------- 2 3.0 0.0 13 67
+ 1.25272 4 0 ack 40 ------- 2 3.0 0.0 13 67
- 1.25272 4 0 ack 40 ------- 2 3.0 0.0 13 67
r 1.25472 4 0 ack 40 ------- 2 3.0 0.0 12 63
+ 1.25472 0 4 tcp 1040 ------- 2 0.0 3.0 25 72
+ 1.25472 0 4 tcp 1040 ------- 2 0.0 3.0 26 73
- 1.25568 0 4 tcp 1040 ------- 2 0.0 3.0 19 60
+ 1.256 1 4 cbr 1000 ------- 1 1.0 2.0 32 74
- 1.256 1 4 cbr 1000 ------- 1 1.0 2.0 32 74
r 1.25736 0 4 tcp 1040 ------- 2 0.0 3.0 17 56
+ 1.25736 4 3 tcp 1040 ------- 2 0.0 3.0 17 56
- 1.25736 4 3 tcp 1040 ------- 2 0.0 3.0 17 56
r 1.258 1 4 cbr 1000 ------- 1 1.0 2.0 30 66
+ 1.258 4 2 cbr 1000 ------- 1 1.0 2.0 30 66
- 1.258 4 2 cbr 1000 ------- 1 1.0 2.0 30 66
r 1.25904 4 3 tcp 1040 ------- 2 0.0 3.0 15 52
+ 1.25904 3 4 ack 40 ------- 2 3.0 0.0 15 75
- 1.25904 3 4 ack 40 ------- 2 3.0 0.0 15 75
r 1.26 4 2 cbr 1000 ------- 1 1.0 2.0 28 58
r 1.26104 3 4 ack 40 ------- 2 3.0 0.0 14 71
+ 1.26104 4 0 ack 40 ------- 2 3.0 0.0 14 71
- 1.26104 4 0 ack 40 ------- 2 3.0 0.0 14 71
r 1.26304 4 0 ack 40 ------- 2 3.0 0.0 13 67
+ 1.26304 0 4 tcp 1040 ------- 2 0.0 3.0 27 76
+ 1.26304 0 4 tcp 1040 ------- 2 0.0 3.0 28 77
+ 1.264 1 4 cbr 1000 ------- 1 1.0 2.0 33 78
- 1.264 1 4 cbr 1000 ------- 1 1.0 2.0 33 78
- 1.264 0 4 tcp 1040 ------- 2 0.0 3.0 20 61
r 1.26568 0 4 tcp 1040 ------- 2 0.0 3.0 18 57
+ 1.26568 4 3 tcp 1040 ------- 2 0.0 3.0 18 57
- 1.26568 4 3 tcp 1040 ------- 2 0.0 3.0 18 57
r 1.266 1 4 cbr 1000 ------- 1 1.0 2.0 31 70
+ 1.266 4 2 cbr 1000 ------- 1 1.0 2.0 31 70
- 1.266 4 2 cbr 1000 ------- 1 1.0 2.0 31 70
r 1.26736 4 3 tcp 1040 ------- 2 0.0 3.0 16 53
+ 1.26736 3 4 ack 40 ------- 2 3.0 0.0 16 79
- 1.26736 3 4 ack 40 ------- 2 3.0 0.0 16 79
r 1.268 4 2 cbr 1000 ------- 1 1.0 2.0 29 62
r 1.26936 3 4 ack 40 ------- 2 3.0 0.0 15 75
+ 1.26936 4 0 ack 40 ------- 2 3.0 0.0 15 75
- 1.26936 4 0 ack 40 ------- 2 3.0 0.0 15 75
r 1.27136 4 0 ack 40 ------- 2 3.0 0.0 14 71
+ 1.27136 0 4 tcp 1040 ------- 2 0.0 3.0 29 80
+ 1.27136 0 4 tcp 1040 ------- 2 0.0 3.0 30 81
+ 1.272 1 4 cbr 1000 ------- 1 1.0 2.0 34 82
- 1.272 1 4 cbr 1000 ------- 1 1.0 2.0 34 82
- 1.27232 0 4 tcp 1040 ------- 2 0.0 3.0 21 64
r 1.274 1 4 cbr 1000 ------- 1 1.0 2.0 32 74
+ 1.274 4 2 cbr 1000 ------- 1 1.0 2.0 32 74
- 1.274 4 2 cbr 1000 ------- 1 1.0 2.0 32 74
r 1.274 0 4 tcp 1040 ------- 2 0.0 3.0 19 60
+ 1.274 4 3 tcp 1040 ------- 2 0.0 3.0 19 60
- 1.274 4 3 tcp 1040 ------- 2 0.0 3.0 19 60
r 1.27568 4 3 tcp 1040 ------- 2 0.0 3.0 17 56
+ 1.27568 3 4 ack 40 ------- 2 3.0 0.0 17 83
- 1.27568 3 4 ack 40 ------- 2 3.0 0.0 17 83
r 1.276 4 2 cbr 1000 ------- 1 1.0 2.0 30 66
r 1.27768 3 4 ack 40 ------- 2 3.0 0.0 16 79
+ 1.27768 4 0 ack 40 ------- 2 3.0 0.0 16 79
- 1.27768 4 0 ack 40 ------- 2 3.0 0.0 16 79
r 1.27968 4 0 ack 40 ------- 2 3.0 0.0 15 75
+ 1.27968 0 4 tcp 1040 ------- 2 0.0 3.0 31 84
+ 1.27968 0 4 tcp 1040 ------- 2 0.0 3.0 32 85
+ 1.28 1 4 cbr 1000 ------- 1 1.0 2.0 35 86
- 1.28 1 4 cbr 1000 ------- 1 1.0 2.0 35 86
- 1.28064 0 4 tcp 1040 ------- 2 0.0 3.0 22 65
r 1.282 1 4 cbr 1000 ------- 1 1.0 2.0 33 78
+ 1.282 4 2 cbr 1000 ------- 1 1.0 2.0 33 78
- 1.282 4 2 cbr 1000 ------- 1 1.0 2.0 33 78
r 1.28232 0 4 tcp 1040 ------- 2 0.0 3.0 20 61
+ 1.28232 4 3 tcp 1040 ------- 2 0.0 3.0 20 61
- 1.28232 4 3 tcp 1040 ------- 2 0.0 3.0 20 61
r 1.284 4 2 cbr 1000 ------- 1 1.0 2.0 31 70
r 1.284 4 3 tcp 1040 ------- 2 0.0 3.0 18 57
+ 1.284 3 4 ack 40 ------- 2 3.0 0.0 18 87
- 1.284 3 4 ack 40 ------- 2 3.0 0.0 18 87
r 1.286 3 4 ack 40 ------- 2 3.0 0.0 17 83
+ 1.286 4 0 ack 40 ------- 2 3.0 0.0 17 83
- 1.286 4 0 ack 40 ------- 2 3.0 0.0 17 83
+ 1.288 1 4 cbr 1000 ------- 1 1.0 2.0 36 88
- 1.288 1 4 cbr 1000 ------- 1 1.0 2.0 36 88
r 1.288 4 0 ack 40 ------- 2 3.0 0.0 16 79
+ 1.288 0 4 tcp 1040 ------- 2 0.0 3.0 33 89
+ 1.288 0 4 tcp 1040 ------- 2 0.0 3.0 34 90
- 1.28896 0 4 tcp 1040 ------- 2 0.0 3.0 23 68
r 1.29 1 4 cbr 1000 ------- 1 1.0 2.0 34 82
+ 1.29 4 2 cbr 1000 ------- 1 1.0 2.0 34 82
- 1.29 4 2 cbr 1000 ------- 1 1.0 2.0 34 82
r 1.29064 0 4 tcp 1040 ------- 2 0.0 3.0 21 64
+ 1.29064 4 3 tcp 1040 ------- 2 0.0 3.0 21 64
- 1.29064 4 3 tcp 1040 ------- 2 0.0 3.0 21 64
r 1.292 4 2 cbr 1000 ------- 1 1.0 2.0 32 74
r 1.29232 4 3 tcp 1040 ------- 2 0.0 3.0 19 60
+ 1.29232 3 4 ack 40 ------- 2 3.0 0.0 19 91
- 1.29232 3 4 ack 40 ------- 2 3.0 0.0 19 91
r 1.29432 3 4 ack 40 ------- 2 3.0 0.0 18 87
+ 1.29432 4 0 ack 40 ------- 2 3.0 0.0 18 87
- 1.29432 4 0 ack 40 ------- 2 3.0 0.0 18 87
+ 1.296 1 4 cbr 1000 ------- 1 1.0 2.0 37 92
- 1.296 1 4 cbr 1000 ------- 1 1.0 2.0 37 92
r 1.29632 4 0 ack 40 ------- 2 3.0 0.0 17 83
+ 1.29632 0 4 tcp 1040 ------- 2 0.0 3.0 35 93
+ 1.29632 0 4 tcp 1040 ------- 2 0.0 3.0 36 94
- 1.29728 0 4 tcp 1040 ------- 2 0.0 3.0 24 69
r 1.298 1 4 cbr 1000 ------- 1 1.0 2.0 35 86
+ 1.298 4 2 cbr 1000 ------- 1 1.0 2.0 35 86
- 1.298 4 2 cbr 1000 ------- 1 1.0 2.0 35 86
r 1.29896 0 4 tcp 1040 ------- 2 0.0 3.0 22 65
+ 1.29896 4 3 tcp 1040 ------- 2 0.0 3.0 22 65
- 1.29896 4 3 tcp 1040 ------- 2 0.0 3.0 22 65
r 1.3 4 2 cbr 1000 ------- 1 1.0 2.0 33 78
r 1.30064 4 3 tcp 1040 ------- 2 0.0 3.0 20 61
+ 1.30064 3 4 ack 40 ------- 2 3.0 0.0 20 95
- 1.30064 3 4 ack 40 ------- 2 3.0 0.0 20 95
r 1.30264 3 4 ack 40 ------- 2 3.0 0.0 19 91
+ 1.30264 4 0 ack 40 ------- 2 3.0 0.0 19 91
- 1.30264 4 0 ack 40 ------- 2 3.0 0.0 19 91
+ 1.304 1 4 cbr 1000 ------- 1 1.0 2.0 38 96
- 1.304 1 4 cbr 1000 ------- 1 1.0 2.0 38 96
r 1.30464 4 0 ack 40 ------- 2 3.0 0.0 18 87
+ 1.30464 0 4 tcp 1040 ------- 2 0.0 3.0 37 97
+ 1.30464 0 4 tcp 1040 ------- 2 0.0 3.0 38 98
- 1.3056 0 4 tcp 1040 ------- 2 0.0 3.0 25 72
r 1.306 1 4 cbr 1000 ------- 1 1.0 2.0 36 88
+ 1.306 4 2 cbr 1000 ------- 1 1.0 2.0 36 88
- 1.306 4 2 cbr 1000 ------- 1 1.0 2.0 36 88
r 1.30728 0 4 tcp 1040 ------- 2 0.0 3.0 23 68
+ 1.30728 4 3 tcp 1040 ------- 2 0.0 3.0 23 68
- 1.30728 4 3 tcp 1040 ------- 2 0.0 3.0 23 68
r 1.308 4 2 cbr 1000 ------- 1 1.0 2.0 34 82
r 1.30896 4 3 tcp 1040 ------- 2 0.0 3.0 21 64
+ 1.30896 3 4 ack 40 ------- 2 3.0 0.0 21 99
- 1.30896 3 4 ack 40 ------- 2 3.0 0.0 21 99
r 1.31096 3 4 ack 40 ------- 2 3.0 0.0 20 95
+ 1.31096 4 0 ack 40 ------- 2 3.0 0.0 20 95
- 1.31096 4 0 ack 40 ------- 2 3.0 0.0 20 95
+ 1.312 1 4 cbr 1000 ------- 1 1.0 2.0 39 100
- 1.312 1 4 cbr 1000 ------- 1 1.0 2.0 39 100
r 1.31296 4 0 ack 40 ------- 2 3.0 0.0 19 91
+ 1.31296 0 4 tcp 1040 ------- 2 0.0 3.0 39 101
- 1.31392 0 4 tcp 1040 ------- 2 0.0 3.0 26 73
r 1.314 1 4 cbr 1000 ------- 1 1.0 2.0 37 92
+ 1.314 4 2 cbr 1000 ------- 1 1.0 2.0 37 92
- 1.314 4 2 cbr 1000 ------- 1 1.0 2.0 37 92
r 1.3156 0 4 tcp 1040 ------- 2 0.0 3.0 24 69
+ 1.3156 4 3 tcp 1040 ------- 2 0.0 3.0 24 69
- 1.3156 4 3 tcp 1040 ------- 2 0.0 3.0 24 69
r 1.316 4 2 cbr 1000 ------- 1 1.0 2.0 35 86
r 1.31728 4 3 tcp 1040 ------- 2 0.0 3.0 22 65
+ 1.31728 3 4 ack 40 ------- 2 3.0 0.0 22 102
- 1.31728 3 4 ack 40 ------- 2 3.0 0.0 22 102
r 1.31928 3 4 ack 40 ------- 2 3.0 0.0 21 99
+ 1.31928 4 0 ack 40 ------- 2 3.0 0.0 21 99
- 1.31928 4 0 ack 40 ------- 2 3.0 0.0 21 99
+ 1.32 1 4 cbr 1000 ------- 1 1.0 2.0 40 103
- 1.32 1 4 cbr 1000 ------- 1 1.0 2.0 40 103
r 1.32128 4 0 ack 40 ------- 2 3.0 0.0 20 95
+ 1.32128 0 4 tcp 1040 ------- 2 0.0 3.0 40 104
r 1.322 1 4 cbr 1000 ------- 1 1.0 2.0 38 96
+ 1.322 4 2 cbr 1000 ------- 1 1.0 2.0 38 96
- 1.322 4 2 cbr 1000 ------- 1 1.0 2.0 38 96
- 1.32224 0 4 tcp 1040 ------- 2 0.0 3.0 27 76
r 1.32392 0 4 tcp 1040 ------- 2 0.0 3.0 25 72
+ 1.32392 4 3 tcp 1040 ------- 2 0.0 3.0 25 72
- 1.32392 4 3 tcp 1040 ------- 2 0.0 3.0 25 72
r 1.324 4 2 cbr 1000 ------- 1 1.0 2.0 36 88
r 1.3256 4 3 tcp 1040 ------- 2 0.0 3.0 23 68
+ 1.3256 3 4 ack 40 ------- 2 3.0 0.0 23 105
- 1.3256 3 4 ack 40 ------- 2 3.0 0.0 23 105
r 1.3276 3 4 ack 40 ------- 2 3.0 0.0 22 102
+ 1.3276 4 0 ack 40 ------- 2 3.0 0.0 22 102
- 1.3276 4 0 ack 40 ------- 2 3.0 0.0 22 102
+ 1.328 1 4 cbr 1000 ------- 1 1.0 2.0 41 106
- 1.328 1 4 cbr 1000 ------- 1 1.0 2.0 41 106
r 1.3296 4 0 ack 40 ------- 2 3.0 0.0 21 99
+ 1.3296 0 4 tcp 1040 ------- 2 0.0 3.0 41 107
r 1.33 1 4 cbr 1000 ------- 1 1.0 2.0 39 100
+ 1.33 4 2 cbr 1000 ------- 1 1.0 2.0 39 100
- 1.33 4 2 cbr 1000 ------- 1 1.0 2.0 39 100
- 1.33056 0 4 tcp 1040 ------- 2 0.0 3.0 28 77
r 1.332 4 2 cbr 1000 ------- 1 1.0 2.0 37 92
r 1.33224 0 4 tcp 1040 ------- 2 0.0 3.0 26 73
+ 1.33224 4 3 tcp 1040 ------- 2 0.0 3.0 26 73
- 1.33224 4 3 tcp 1040 ------- 2 0.0 3.0 26 73
r 1.33392 4 3 tcp 1040 ------- 2 0.0 3.0 24 69
+ 1.33392 3 4 ack 40 ------- 2 3.0 0.0 24 108
- 1.33392 3 4 ack 40 ------- 2 3.0 0.0 24 108
r 1.33592 3 4 ack 40 ------- 2 3.0 0.0 23 105
+ 1.33592 4 0 ack 40 ------- 2 3.0 0.0 23 105
- 1.33592 4 0 ack 40 ------- 2 3.0 0.0 23 105
+ 1.336 1 4 cbr 1000 ------- 1 1.0 2.0 42 109
- 1.336 1 4 cbr 1000 ------- 1 1.0 2.0 42 109
r 1.33792 4 0 ack 40 ------- 2 3.0 0.0 22 102
+ 1.33792 0 4 tcp 1040 ------- 2 0.0 3.0 42 110
r 1.338 1 4 cbr 1000 ------- 1 1.0 2.0 40 103
+ 1.338 4 2 cbr 1000 ------- 1 1.0 2.0 40 103
- 1.338 4 2 cbr 1000 ------- 1 1.0 2.0 40 103
- 1.33888 0 4 tcp 1040 ------- 2 0.0 3.0 29 80
r 1.34 4 2 cbr 1000 ------- 1 1.0 2.0 38 96
r 1.34056 0 4 tcp 1040 ------- 2 0.0 3.0 27 76
+ 1.34056 4 3 tcp 1040 ------- 2 0.0 3.0 27 76
- 1.34056 4 3 tcp 1040 ------- 2 0.0 3.0 27 76
r 1.34224 4 3 tcp 1040 ------- 2 0.0 3.0 25 72
+ 1.34224 3 4 ack 40 ------- 2 3.0 0.0 25 111
- 1.34224 3 4 ack 40 ------- 2 3.0 0.0 25 111
+ 1.344 1 4 cbr 1000 ------- 1 1.0 2.0 43 112
- 1.344 1 4 cbr 1000 ------- 1 1.0 2.0 43 112
r 1.34424 3 4 ack 40 ------- 2 3.0 0.0 24 108
+ 1.34424 4 0 ack 40 ------- 2 3.0 0.0 24 108
- 1.34424 4 0 ack 40 ------- 2 3.0 0.0 24 108
r 1.346 1 4 cbr 1000 ------- 1 1.0 2.0 41 106
+ 1.346 4 2 cbr 1000 ------- 1 1.0 2.0 41 106
- 1.346 4 2 cbr 1000 ------- 1 1.0 2.0 41 106
r 1.34624 4 0 ack 40 ------- 2 3.0 0.0 23 105
+ 1.34624 0 4 tcp 1040 ------- 2 0.0 3.0 43 113
- 1.3472 0 4 tcp 1040 ------- 2 0.0 3.0 30 81
r 1.348 4 2 cbr 1000 ------- 1 1.0 2.0 39 100
r 1.34888 0 4 tcp 1040 ------- 2 0.0 3.0 28 77
+ 1.34888 4 3 tcp 1040 ------- 2 0.0 3.0 28 77
- 1.34888 4 3 tcp 1040 ------- 2 0.0 3.0 28 77
r 1.35056 4 3 tcp 1040 ------- 2 0.0 3.0 26 73
+ 1.35056 3 4 ack 40 ------- 2 3.0 0.0 26 114
- 1.35056 3 4 ack 40 ------- 2 3.0 0.0 26 114
+ 1.352 1 4 cbr 1000 ------- 1 1.0 2.0 44 115
- 1.352 1 4 cbr 1000 ------- 1 1.0 2.0 44 115
r 1.35256 3 4 ack 40 ------- 2 3.0 0.0 25 111
+ 1.35256 4 0 ack 40 ------- 2 3.0 0.0 25 111
- 1.35256 4 0 ack 40 ------- 2 3.0 0.0 25 111
r 1.354 1 4 cbr 1000 ------- 1 1.0 2.0 42 109
+ 1.354 4 2 cbr 1000 ------- 1 1.0 2.0 42 109
- 1.354 4 2 cbr 1000 ------- 1 1.0 2.0 42 109
r 1.35456 4 0 ack 40 ------- 2 3.0 0.0 24 108
+ 1.35456 0 4 tcp 1040 ------- 2 0.0 3.0 44 116
- 1.35552 0 4 tcp 1040 ------- 2 0.0 3.0 31 84
r 1.356 4 2 cbr 1000 ------- 1 1.0 2.0 40 103
r 1.3572 0 4 tcp 1040 ------- 2 0.0 3.0 29 80
+ 1.3572 4 3 tcp 1040 ------- 2 0.0 3.0 29 80
- 1.3572 4 3 tcp 1040 ------- 2 0.0 3.0 29 80
r 1.35888 4 3 tcp 1040 ------- 2 0.0 3.0 27 76
+ 1.35888 3 4 ack 40 ------- 2 3.0 0.0 27 117
- 1.35888 3 4 ack 40 ------- 2 3.0 0.0 27 117
+ 1.36 1 4 cbr 1000 ------- 1 1.0 2.0 45 118
- 1.36 1 4 cbr 1000 ------- 1 1.0 2.0 45 118
r 1.36088 3 4 ack 40 ------- 2 3.0 0.0 26 114
+ 1.36088 4 0 ack 40 ------- 2 3.0 0.0 26 114
- 1.36088 4 0 ack 40 ------- 2 3.0 0.0 26 114
r 1.362 1 4 cbr 1000 ------- 1 1.0 2.0 43 112
+ 1.362 4 2 cbr 1000 ------- 1 1.0 2.0 43 112
- 1.362 4 2 cbr 1000 ------- 1 1.0 2.0 43 112
r 1.36288 4 0 ack 40 ------- 2 3.0 0.0 25 111
+ 1.36288 0 4 tcp 1040 ------- 2 0.0 3.0 45 119
- 1.36384 0 4 tcp 1040 ------- 2 0.0 3.0 32 85
r 1.364 4 2 cbr 1000 ------- 1 1.0 2.0 41 106
r 1.36552 0 4 tcp 1040 ------- 2 0.0 3.0 30 81
+ 1.36552 4 3 tcp 1040 ------- 2 0.0 3.0 30 81
- 1.36552 4 3 tcp 1040 ------- 2 0.0 3.0 30 81
r 1.3672 4 3 tcp 1040 ------- 2 0.0 3.0 28 77
+ 1.3672 3 4 ack 40 ------- 2 3.0 0.0 28 120
- 1.3672 3 4 ack 40 ------- 2 3.0 0.0 28 120
+ 1.368 1 4 cbr 1000 ------- 1 1.0 2.0 46 121
- 1.368 1 4 cbr 1000 ------- 1 1.0 2.0 46 121
r 1.3692 3 4 ack 40 ------- 2 3.0 0.0 27 117
+ 1.3692 4 0 ack 40 ------- 2 3.0 0.0 27 117
- 1.3692 4 0 ack 40 ------- 2 3.0 0.0 27 117
r 1.37 1 4 cbr 1000 ------- 1 1.0 2.0 44 115
+ 1.37 4 2 cbr 1000 ------- 1 1.0 2.0 44 115
- 1.37 4 2 cbr 1000 ------- 1 1.0 2.0 44 115
r 1.3712 4 0 ack 40 ------- 2 3.0 0.0 26 114
+ 1.3712 0 4 tcp 1040 ------- 2 0.0 3.0 46 122
r 1.372 4 2 cbr 1000 ------- 1 1.0 2.0 42 109
- 1.37216 0 4 tcp 1040 ------- 2 0.0 3.0 33 89
r 1.37384 0 4 tcp 1040 ------- 2 0.0 3.0 31 84
+ 1.37384 4 3 tcp 1040 ------- 2 0.0 3.0 31 84
- 1.37384 4 3 tcp 1040 ------- 2 0.0 3.0 31 84
r 1.37552 4 3 tcp 1040 ------- 2 0.0 3.0 29 80
+ 1.37552 3 4 ack 40 ------- 2 3.0 0.0 29 123
- 1.37552 3 4 ack 40 ------- 2 3.0 0.0 29 123
+ 1.376 1 4 cbr 1000 ------- 1 1.0 2.0 47 124
- 1.376 1 4 cbr 1000 ------- 1 1.0 2.0 47 124
r 1.37752 3 4 ack 40 ------- 2 3.0 0.0 28 120
+ 1.37752 4 0 ack 40 ------- 2 3.0 0.0 28 120
- 1.37752 4 0 ack 40 ------- 2 3.0 0.0 28 120
r 1.378 1 4 cbr 1000 ------- 1 1.0 2.0 45 118
+ 1.378 4 2 cbr 1000 ------- 1 1.0 2.0 45 118
- 1.378 4 2 cbr 1000 ------- 1 1.0 2.0 45 118
r 1.37952 4 0 ack 40 ------- 2 3.0 0.0 27 117
+ 1.37952 0 4 tcp 1040 ------- 2 0.0 3.0 47 125
r 1.38 4 2 cbr 1000 ------- 1 1.0 2.0 43 112
- 1.38048 0 4 tcp 1040 ------- 2 0.0 3.0 34 90
r 1.38216 0 4 tcp 1040 ------- 2 0.0 3.0 32 85
+ 1.38216 4 3 tcp 1040 ------- 2 0.0 3.0 32 85